/*--------------------------------*- C++ -*----------------------------------*\
  =========                 |
  \\      /  F ield         | OpenFOAM: The Open Source CFD Toolbox
   \\    /   O peration     | Website:  https://openfoam.org
    \\  /    A nd           | Version:  6
     \\/     M anipulation  |
\*---------------------------------------------------------------------------*/
FoamFile
{
    version     2.0;
    format      ascii;
    class       volScalarField;
    location    "0.22";
    object      alpha1;
}
// * * * * * * * * * * * * * * * * * * * * * * * * * * * * * * * * * * * * * //

dimensions      [0 0 0 0 0 0 0];

internalField   nonuniform List<scalar> 
9137
(
5.1562935e-77
2.9811232e-58
7.2126162e-52
3.7130342e-31
-4.2062154e-27
-3.5886133e-25
-9.5841846e-25
-1.1734031e-25
9.652033e-25
9.6836706e-25
1.0687573e-06
0.95065192
0.72718443
0.76741062
0.8952584
0.93849097
0.94715659
0.94999024
0.9575869
0.98103156
0.99587276
1.0000001
1
0.997963
0.9227664
0.59041807
0.55563336
0.47420554
0.8006806
0.98350942
0.86947979
0.51984277
0.79143869
0.00022214928
0.00040962946
4.0154652e-05
0.0014875409
0.0042032663
0.0047636324
0.011575304
0.29836064
0.71917486
0.90948036
0.96006332
0.9918996
1
1.0000007
0.99839884
0.99877026
0.99763657
0.99091563
0.9953194
0.99950718
0.99999234
1
1.0000015
0.99999967
0.99999833
1.0000018
1
0.9544895
0.63168331
0.30622671
0.084056112
0.035371609
0.023246305
0.01882322
0.017657142
0.016063343
0.012747482
0.012600863
0.015747515
0.021868436
0.022303346
0.023287188
0.026609805
0.02504035
0.021874739
0.02368332
0.029428488
0.028876365
0.029628892
0.046106861
0.23086098
0.65034403
0.77646467
0.94475445
0.98519387
0.99156278
0.99701998
0.9996405
1.0000003
0.99994174
0.99975532
0.9999052
0.99999867
0.99999998
0.99999918
0.99995825
0.99878391
0.98383814
0.98427533
0.98980176
0.98125326
0.97945816
0.98400765
0.98664971
0.9864254
0.98128163
0.97861459
0.91972777
0.81693177
0.6187551
0.30501794
0.11533187
0.054494035
0.03345329
0.023470181
0.012377985
1.7358697e-75
3.0599417e-58
7.0674071e-72
-3.1952234e-51
-1.2104909e-24
-1.4408768e-23
-3.8599477e-23
-3.0339425e-23
-2.2060988e-23
1.344912e-09
2.725363e-08
1.1559485e-07
0.54091595
0.27482384
0.5335338
0.70633742
0.8969842
0.97137964
0.98920546
0.99365733
0.99241798
0.99890167
0.99680304
0.42246947
0.07915917
0.024040678
0.026810599
0.16713162
0.74516611
0.57673399
0.16891361
0.2022337
0.05685503
0.09222179
0.18383552
5.9020345e-05
1.2073607e-05
1.4710783e-06
2.8802114e-06
0.00010300577
6.130981e-05
6.6511913e-05
8.2222104e-05
0.00012221405
0.00017852371
0.00022409634
0.00035195326
0.00021634565
0.00060833769
0.0010706896
0.0034026996
0.089290531
0.41298245
0.80639017
0.99469543
0.99654455
0.99849521
0.99656234
0.99091549
0.9924199
0.99760743
0.99995666
1.0000015
0.99999837
0.99999629
0.99999998
0.65246483
0.14536795
0.022574774
0.001833034
0.00018578793
5.6538508e-05
2.8774452e-05
2.4501844e-05
2.1794197e-05
7.2291399e-05
0.00018107784
0.00042802152
0.001132672
0.0018880672
0.0022262862
0.0022107981
0.0021111046
0.0021692843
0.0023999294
0.002697721
0.0032559644
0.0030556225
0.0028170582
0.0069317564
0.042837206
0.38848261
0.63435876
0.91640016
0.98155805
0.99926112
0.99995035
0.99971513
0.99928879
0.9996392
0.99997934
0.99999981
0.99999927
0.99999901
0.99999948
0.99091121
0.9929357
0.97284435
0.97034355
0.97034364
0.97034355
0.97034364
0.98580324
0.98046996
0.92170859
0.79308121
0.40763572
0.11202041
0.013989488
0.0010132689
8.4780644e-05
1.3510252e-05
2.670496e-06
2.0043227e-06
5.7591402e-74
-7.6269484e-78
-8.5337119e-44
-9.1670994e-25
-3.2557656e-23
-2.3053239e-22
-5.9207049e-22
-6.7527713e-22
-5.3858409e-22
1.7609809e-10
4.2974459e-12
1.6943034e-08
5.1590776e-08
0.0050942431
0.037823057
0.024398665
0.099626041
0.47601578
0.99085921
0.99085921
0.024440923
0.0021649436
0.00019227377
9.1943543e-05
0.0052924225
0.39932167
0.22249754
0.018889442
0.0050523051
0.0010581938
6.846363e-07
6.848937e-07
2.0199443e-06
1.3501332e-06
8.1103911e-08
8.1104142e-08
8.1343143e-08
6.7359836e-08
5.4677492e-08
1.8470464e-08
1.7320097e-08
5.7262772e-07
6.5980593e-07
4.5788054e-07
4.7122905e-07
5.5643666e-07
7.7487214e-06
1.0322607e-05
2.2583646e-05
4.3955512e-05
8.5328992e-05
0.0042435562
0.11641825
0.46830337
0.85086633
0.99770337
0.99925828
0.99920816
0.99423604
0.99004611
0.99846207
1
0.99999837
0.99998919
0.99999938
0.32734588
0.023092539
0.001136106
8.3852273e-05
1.3813463e-05
1.3813799e-05
1.3813463e-05
1.9636198e-05
1.5478308e-05
1.528875e-05
1.3916555e-05
1.4130154e-05
2.0882199e-05
4.3055528e-05
6.0145838e-05
5.6265693e-05
4.6192077e-05
3.871895e-05
4.0249694e-05
4.9597452e-05
7.4203571e-05
0.00011323731
0.00011831264
0.0001198977
0.00053787581
0.050574855
0.45441865
0.72974779
0.93950335
0.99963735
0.99958593
0.99888513
0.99888514
0.99974761
0.99999247
0.99999635
0.99999903
0.99030618
0.9789748
0.97543201
0.98424508
0.98784654
0.98780613
0.99510566
0.88131159
0.50048417
0.16525383
0.010791421
0.00015543464
9.0976108e-07
1.9971567e-07
1.9970279e-07
2.4157053e-07
3.3169328e-06
2.8051282e-93
-1.362353e-30
-1.1995445e-25
-1.8211619e-23
-3.282975e-22
-1.8711428e-21
-4.6463456e-21
-6.300459e-21
-5.3820989e-21
4.8432355e-12
4.2969801e-12
1.0025984e-12
6.4905584e-09
1.4407793e-07
0.2138709
1.4395518e-06
1.3166637e-05
4.6025282e-06
1.8701394e-06
0.0071984912
0.0760817
0.0065786521
0.0022745719
0.00083407723
0.00023061554
9.1963737e-05
3.635708e-05
0.043535967
0.0073773708
0.00070158024
8.0656826e-05
1.5362194e-05
4.245069e-06
1.6135563e-06
6.1890776e-07
2.6646704e-07
1.5804635e-07
1.1581209e-07
8.9678034e-08
5.0963568e-08
2.1227242e-08
1.254971e-08
8.7368947e-09
7.5388667e-09
7.5493049e-09
7.0423671e-09
6.8577314e-09
7.2244744e-09
3.623812e-08
1.4195642e-07
3.8630528e-07
8.103561e-07
1.8731748e-06
0.00011454214
0.024131301
0.32954101
0.99718626
0.99925832
0.99509673
0.9899749
0.9899749
0.99999988
0.99853453
0.99969578
0.99997037
0.050174686
0.0073256747
0.0008644
7.2916246e-05
1.3813799e-05
1.3813463e-05
0.0014680415
0.00078893382
0.00093548113
3.6694883e-06
3.669485e-06
3.6694883e-06
3.6694858e-06
3.6694884e-06
3.6694866e-06
3.6694884e-06
3.6694874e-06
3.6694892e-06
3.6713145e-06
3.6699752e-06
3.6699753e-06
3.7053016e-06
3.6699751e-06
3.669975e-06
4.3051726e-06
0.0025277732
0.12086584
0.72533924
0.97962069
0.99958694
0.99932428
0.99966415
0.99992336
0.99996627
0.99999658
0.99878658
0.5792596
0.007975996
0.00014659257
9.9499251e-07
2.8154343e-07
2.8545989e-07
1.2000745e-06
2.5430073e-06
1.5616016e-05
-2.7309647e-40
-1.5529609e-28
-1.5272871e-24
-1.279727e-22
-1.796011e-21
-9.1704351e-21
-2.1867217e-20
-3.1268167e-20
-2.9439588e-20
1.2437964e-14
1.1841405e-12
1.0024979e-12
3.6474953e-13
1.3526633e-08
9.9765294e-09
5.9215107e-14
2.0658246e-08
3.5164529e-14
3.5164525e-14
3.5164529e-14
3.5164525e-14
7.3619236e-12
3.548025e-14
0.001953221
0.00028594644
0.00028609588
0.00019269063
0.00011442619
4.7702049e-05
1.9507694e-05
0.0039917747
0.01765999
0.0057525417
0.00043888186
1.5596121e-05
3.271517e-07
6.0431065e-09
1.2536397e-10
3.9157772e-11
1.9983446e-11
1.9980953e-11
9.4559786e-11
4.6426558e-10
1.1216217e-09
8.7920966e-10
1.2027293e-09
1.7525147e-09
1.4640588e-09
1.0288002e-09
6.819334e-10
5.4605082e-10
5.2113451e-10
4.9151999e-10
9.0479587e-10
2.9866077e-09
6.7592627e-09
3.291571e-08
3.9616148e-06
0.0061969547
0.28012134
0.99908777
0.99723184
0.99968947
0.9899749
0.99675751
0.99913871
0.99995667
0.027445061
0.0069748126
0.00092626986
8.382885e-05
2.9093375e-05
0.00064200926
0.013824871
0.19311853
0.0087861881
0.0020497559
7.9129024e-05
3.6694866e-06
3.6694876e-06
3.6694874e-06
5.7088239e-06
6.7540082e-06
6.70099e-06
6.3397302e-06
5.5926027e-06
4.2519734e-06
3.669975e-06
3.6699751e-06
3.669975e-06
5.0893011e-05
0.1068221
0.7155537
1
0.99993464
0.99913916
0.99991021
0.99998833
0.22844864
0.010510563
9.359411e-05
7.8114777e-07
3.5157001e-07
1.9067161e-06
1.0624111e-05
1.6535655e-05
2.853956e-05
-9.7349672e-39
-1.4398107e-27
-8.2719783e-24
-5.3411744e-22
-6.5533082e-21
-3.1238412e-20
-7.0851173e-20
-9.9962392e-20
-1.0367188e-19
4.7048981e-18
4.7620033e-14
3.7580572e-13
3.6471309e-13
5.9220588e-14
5.9215107e-14
5.9209624e-14
4.4147808e-14
4.4148752e-14
4.5298955e-14
4.7473228e-14
3.5164529e-14
3.5164525e-14
3.5479917e-14
6.9419567e-05
0.0013301747
0.0006729237
0.00052076469
0.00025206223
6.241609e-05
1.2883304e-05
3.4859439e-06
2.2134997e-06
0.00020617277
0.0038652495
5.2871633e-05
5.2870802e-05
1.620134e-05
1.8103964e-06
7.0715394e-08
9.6932188e-10
2.7979683e-11
2.7948019e-11
5.7857732e-11
1.9983446e-11
2.5326051e-11
5.05548e-11
6.8259694e-11
6.7833056e-11
7.8798796e-11
1.4236574e-10
2.2636443e-10
2.2275284e-10
2.1360516e-10
2.0904824e-10
2.004505e-10
1.5931843e-10
1.0923176e-10
7.4835429e-11
6.4495066e-11
5.646456e-10
4.3992934e-07
0.011026579
0.11597991
0.99983163
0.99960184
0.99994272
0.99377528
0.99256185
0.9925621
0.99755864
0.021615932
0.0066151844
0.00058981705
0.0001247147
3.995367e-05
0.005158953
0.012523958
0.0062240353
0.0002195649
0.0001701953
0.00014083348
0.0012768409
0.0021570455
6.7013523e-06
0.0154819
0.002789375
0.0023859219
0.0017533977
0.0012431078
0.00083913088
5.0908552e-05
0.016230467
0.21557859
0.99980039
0.99912636
0.99989263
0.99997571
1.8366902e-05
1.8373842e-05
3.8863703e-06
8.7540755e-07
8.4394787e-07
3.9889164e-06
2.5494633e-05
2.5730631e-05
8.544196e-06
-1.3546771e-37
-7.60689e-27
-2.9967747e-23
-1.6186659e-21
-1.8102895e-20
-8.1925377e-20
-1.7356896e-19
-2.3311564e-19
-2.3921388e-19
3.8567251e-37
5.5191426e-16
2.5407296e-14
1.448871e-13
1.2382415e-13
9.6905425e-14
7.8505472e-14
6.3589796e-14
5.4192815e-14
5.0496507e-14
4.8402744e-14
4.5261545e-14
3.5164529e-14
3.5164525e-14
3.5164529e-14
0.00012682103
7.7289386e-05
7.60594e-05
4.6101325e-05
8.9911658e-05
1.8166297e-06
0.00098008786
0.12257351
0.00043020617
0.00043045523
0.00015912274
3.0321052e-05
4.0524054e-06
6.5514135e-07
1.2842219e-07
1.1169354e-07
1.1664854e-09
0.00024290202
0.00025152221
2.9454644e-10
0.0048325875
0.005561357
0.0014032306
5.6348966e-05
6.0211858e-07
1.6899577e-09
4.9541061e-11
3.2078716e-11
2.7921643e-11
2.7979683e-11
4.419402e-10
0.21652136
4.213879e-09
2.7579228e-10
4.0634412e-11
5.6900133e-11
9.4772765e-11
1.296867e-10
1.5357251e-10
1.4677057e-10
1.1911135e-10
7.8364446e-11
5.4377905e-11
5.4405264e-11
1.3232881e-07
0.0031804525
0.99999821
0.99999183
0.99995497
0.99821917
0.99999063
0.99900502
0.99837318
0.99319529
0.99607429
0.99410048
0.99256185
0.99557338
0.018341152
0.0042543904
0.00023431732
0.00028172699
3.9987767e-05
0.21285632
0.055990581
0.0051277582
0.0030547337
0.057879046
0.28921283
0.40339425
0.57877569
0.00068152761
0.0011717329
0.030769447
0.99849481
0.99930844
0.99984962
0.99997145
0.00059983221
1.8767221e-05
1.5358845e-06
5.2170512e-07
7.2302997e-07
4.0244362e-06
2.5130305e-05
1.9691853e-05
4.3338867e-06
-1.2679258e-36
-3.0364964e-26
-8.5334486e-23
-3.949549e-21
-4.0779702e-20
-1.7626485e-19
-3.4433276e-19
-4.3689572e-19
-4.0924047e-19
-3.4513745e-19
4.1407476e-18
6.4131814e-16
1.0854048e-14
3.8396669e-14
6.1843443e-14
7.2695219e-14
7.1961098e-14
7.0112054e-14
6.7852671e-14
6.546637e-14
6.3674577e-14
6.0750165e-14
4.8090064e-14
3.884561e-14
3.876192e-14
3.8761925e-14
1.5581988e-06
1.3119239e-06
1.0239735e-06
1.8165471e-06
4.6079459e-05
2.1097171e-06
0.00069250394
0.18419112
0.00018952151
0.0018204618
0.0011111835
0.00039304696
5.0851428e-05
2.8168104e-06
9.462158e-08
4.5534112e-09
1.1911208e-09
1.2111806e-09
1.1652934e-09
2.9548877e-10
2.9462501e-10
2.9546361e-10
0.00042142714
0.00023532005
0.00030621567
1.2205377e-05
0.0047179348
0.0016907384
0.00042448555
2.5395159e-05
5.8453915e-07
4.1340377e-09
7.3985995e-11
4.8343767e-11
4.7946781e-11
5.9415858e-11
2.7871463e-11
1.7438416e-11
1.7438533e-11
1.9389853e-11
3.5098698e-11
7.2743939e-11
1.1273416e-10
1.3338275e-10
1.2636993e-10
9.6630953e-11
5.5079575e-11
4.8686058e-11
4.5882674e-08
0.0028886715
0.99972328
0.99950619
0.99968837
0.99202627
0.8949562
0.95733603
0.93554384
0.95481684
0.9847848
0.97635552
0.98971809
0.99563522
0.99359558
0.99887083
0.016553964
0.0029127288
9.9396746e-05
0.00081847003
0.0012250577
0.0011712775
0.0062971018
0.016492763
0.99846112
0.99429445
0.99622961
0.99934482
0.99995624
8.0358584e-06
8.0388265e-06
1.8737466e-06
4.6225442e-07
8.829835e-07
1.0719418e-05
4.1235288e-05
3.2389354e-05
8.116451e-06
-9.7043299e-36
-1.0393258e-25
-2.0888457e-22
-8.2556166e-21
-7.8217791e-20
-3.2207063e-19
-5.7543798e-19
-5.8919844e-19
-2.6131885e-19
1.4074404e-18
4.397181e-17
4.3975688e-17
5.2932497e-15
1.1210312e-14
2.9505243e-14
4.3365401e-14
5.0368588e-14
5.2822813e-14
5.3484391e-14
5.3470678e-14
5.3181573e-14
5.1670613e-14
4.6762628e-14
4.3801507e-13
1.1406899e-12
1.2753285e-09
3.9592396e-09
4.0067685e-09
9.892064e-08
1.3307368e-09
2.1096872e-06
6.7846431e-05
9.034642e-07
3.1951148e-05
1.4551484e-06
0.00044173728
0.1837267
8.1218368e-05
7.5442206e-07
8.621519e-07
7.224987e-07
3.5278131e-07
1.1836834e-07
3.0284342e-08
6.3857206e-09
1.401703e-09
4.5256445e-10
4.155651e-10
4.1556509e-10
4.6260198e-10
4.0945704e-10
2.9546361e-10
2.9459974e-10
2.9545724e-10
1.4377713e-05
1.2923329e-05
1.2208359e-05
0.00042013077
0.00024085488
0.00028127812
0.00037432059
0.00055445654
0.00080936703
0.0010419273
0.0012087253
0.0012513896
0.0012051244
0.00046010815
3.903467e-05
1.2095207e-06
1.3681068e-08
1.7527576e-10
1.0190298e-10
8.2337723e-11
6.9114222e-11
7.9787816e-11
0.00078094106
0.0037660678
1.7438416e-11
2.2831396e-11
2.2868678e-11
3.1921183e-11
6.9924954e-11
1.1375284e-10
1.2290847e-10
1.1174082e-10
6.3440363e-11
4.2821872e-11
1.0805699e-08
0.0025491366
0.99871714
0.99720657
0.99744957
0.99553442
0.77566542
0.46725643
0.71715542
0.50305717
0.74236444
0.70453288
0.86597958
0.93164938
0.96957761
0.9805991
0.99696474
0.9982968
0.015855302
0.0025632935
3.8526675e-05
0.0015423996
0.0014226434
0.00048621958
0.0060889776
0.029638717
0.99773093
0.99756978
0.99563488
0.99160408
0.99159839
0.99512615
0.99955134
0.00091632038
0.00026091699
9.4435962e-06
2.8768439e-07
5.0940301e-07
8.9875019e-06
4.0828048e-05
4.8126192e-05
4.3747401e-05
1.0603348e-05
-6.8209457e-35
-3.2910146e-25
-4.6543662e-22
-1.5434535e-20
-1.3221123e-19
-5.1630948e-19
-8.4746853e-19
-7.3783208e-19
1.1211402e-14
1.3306222e-14
2.0944225e-14
2.7732195e-14
3.2364906e-14
3.5142333e-14
3.77075e-14
3.9587797e-14
1.1280716e-10
1.5542641e-09
6.0599855e-09
1.4671614e-08
3.277725e-08
3.0610389e-08
1.4653548e-08
4.2851893e-09
1.3391768e-09
1.2872407e-07
2.1367742e-07
1.8224497e-07
1.3573493e-07
1.4548058e-06
3.7959606e-05
2.6746196e-05
2.8747363e-05
3.5178272e-05
4.8644877e-05
7.3213392e-05
0.00010700635
0.00014487435
0.0001738618
0.00014596312
0.00017058557
7.6661222e-05
1.0713017e-06
1.0718427e-06
7.5479799e-07
3.8058497e-07
1.5327705e-07
4.657035e-08
1.0418207e-08
2.0992088e-09
5.5503282e-10
4.1556514e-10
4.1556516e-10
4.1556509e-10
4.1556516e-10
4.1614702e-10
4.037844e-10
3.5853464e-10
2.960713e-10
2.9462501e-10
1.1169336e-07
1.4112853e-07
1.5378846e-06
1.3474944e-06
1.8177698e-06
9.1912671e-06
1.7828532e-05
3.0765113e-05
4.9404789e-05
7.3778751e-05
8.2615065e-05
6.6221472e-05
3.3952834e-05
9.8080743e-06
1.632973e-06
1.2047584e-07
3.7119305e-09
1.6607345e-10
1.3903544e-10
9.593597e-11
7.985884e-11
7.9809132e-11
0.00036884265
0.17215958
0.0041606058
1.9763442e-05
1.6375866e-08
3.1896417e-11
4.3191388e-11
8.7207431e-11
1.1529178e-10
1.1114857e-10
7.2264569e-11
4.2822334e-11
1.3299889e-09
0.00079440607
0.006826619
0.999499
0.99160495
0.97799499
0.97216674
0.00072412028
0.033043782
0.048279404
0.034148216
0.022661255
0.13846792
0.30191359
0.4658355
0.74641005
0.91480409
0.95936741
0.99469875
0.99997526
0.060893144
0.0024948004
2.1823295e-05
0.00096727365
0.00177579
9.7032864e-05
0.0010111512
0.010425524
0.049890672
0.99841666
0.99735592
0.99480674
0.99484286
0.99527531
0.99248304
0.99160408
0.99159839
0.99726735
0.00076385472
0.00020324328
1.3771699e-07
1.3771712e-07
2.9101835e-07
7.3717025e-06
3.6201913e-05
4.7881599e-05
4.7565575e-05
1.1715695e-05
1.3904058e-06
-4.7798011e-34
-1.0215199e-24
-9.8237976e-22
-2.6525414e-20
-2.0065116e-19
-7.4045711e-19
-1.0960353e-18
2.2725566e-14
2.094602e-14
2.9986683e-14
3.7151263e-14
4.0753151e-14
4.6352154e-08
7.842507e-08
5.5301837e-08
5.2533542e-08
1.1029099e-07
1.2182845e-07
1.220172e-07
7.3185569e-08
1.2947925e-08
8.8682226e-10
3.2713097e-10
4.8863553e-10
6.3065085e-10
4.7398035e-09
4.1719814e-09
2.0497514e-07
1.597738e-07
3.3900903e-07
1.3649062e-06
2.1582578e-06
3.1897241e-06
5.0040334e-06
7.7457997e-06
1.1111842e-05
1.3294335e-05
1.1672971e-05
7.912013e-06
3.6431922e-06
1.7995097e-06
6.5705837e-07
1.1649994e-07
1.3378242e-08
1.7713922e-09
4.3598826e-10
4.3598842e-10
4.3598903e-10
4.3598918e-10
4.8731252e-10
4.1556514e-10
4.4662727e-10
7.6192068e-10
1.0516149e-09
1.0400711e-09
1.0009042e-09
9.2138672e-10
7.64064e-10
8.0300305e-10
8.9256937e-10
3.6551222e-08
3.6768355e-08
3.2247521e-08
7.4352483e-08
2.1317565e-07
4.7060241e-07
8.5450797e-07
1.3501527e-06
1.9330637e-06
1.7843316e-06
1.1936808e-06
5.1742572e-07
1.2187663e-07
1.322548e-08
8.2969118e-10
1.6446057e-10
1.4304012e-10
9.5576162e-11
9.0048476e-11
1.4309745e-10
0.99940178
0.43353442
0.0025393978
1.4791567e-05
2.4972944e-08
3.6082707e-11
2.821028e-11
6.0450579e-11
1.006095e-10
1.0658089e-10
7.7421969e-11
4.4230782e-11
1.5430291e-10
0.00015920165
0.0035476296
0.99950687
0.91095011
0.88597811
0.94936734
0.0064345669
0.0029550496
0.00026985481
0.00012556355
0.00043135984
0.00021473791
0.00021581168
0.00364113
0.029286891
0.093127527
0.26343025
0.71539376
0.91622082
0.99035748
0.0066898685
2.2449961e-05
2.2440711e-05
0.014826767
0.0010930845
5.0986896e-05
0.00020520725
0.0031426909
0.020775603
0.18830949
0.73091236
0.91802032
0.94537992
0.96250835
0.97629814
0.98703963
0.99296655
0.99338417
0.99739114
0.99984835
0.99973864
0.99866607
0.99626965
0.99426637
0.99588995
0.99928634
0.09245917
0.00017312069
0.00017291005
2.3560191e-05
1.1442541e-06
1.5079309e-07
1.6420799e-06
2.5351483e-05
3.6442822e-05
3.4731617e-05
6.1525175e-06
3.8999677e-07
1.4533309e-08
-3.5836478e-33
-3.256458e-24
-2.0240849e-21
-4.2552632e-20
-2.7461817e-19
-9.5262514e-19
-1.3718514e-18
1.8945416e-05
1.2394384e-05
7.4598245e-06
3.8017431e-06
1.5409878e-06
4.9014704e-07
1.2226247e-07
2.4014617e-08
6.0789759e-09
3.0242754e-09
1.1756716e-09
2.2609724e-10
4.1426874e-10
2.8161838e-10
2.8186235e-10
2.8161838e-10
1.9426123e-09
3.9798984e-09
3.9952007e-09
1.5612122e-08
2.536046e-08
2.539091e-08
3.9418135e-08
6.2806569e-08
9.4975002e-08
1.4329344e-07
2.1255586e-07
2.9227445e-07
3.929863e-07
3.7473639e-07
2.8201807e-07
1.5062976e-07
5.1183654e-08
1.377176e-08
3.4650224e-09
9.1411073e-10
4.3598903e-10
4.3598842e-10
4.3598903e-10
4.3598918e-10
4.3598978e-10
9.2529485e-10
1.3544964e-08
1.0605806e-08
1.0924453e-08
1.0792748e-08
1.0298226e-08
1.0138018e-08
1.0023008e-08
7.6394038e-10
1.0293935e-07
7.1080629e-09
9.9101738e-09
2.7095898e-09
2.7095902e-09
3.6015926e-09
3.2185883e-09
4.0220483e-09
6.2685006e-09
9.5702625e-09
1.4071847e-08
1.7615628e-08
1.4445698e-08
8.1780196e-09
2.8026381e-09
6.431855e-10
2.0226556e-10
1.6781821e-10
1.2635399e-10
9.5704026e-11
9.8972024e-11
9.8974302e-11
0.87892674
0.50327402
0.067830198
0.001905352
9.6684785e-06
8.6300313e-09
2.8210288e-11
3.3995173e-11
7.2714694e-11
9.7137784e-11
7.5542243e-11
4.429416e-11
5.3522427e-11
8.3403788e-06
0.0010809838
0.0056234609
0.10888066
0.0016151502
0.0017041415
0.0015217792
0.0015868593
0.0015487785
0.013950353
0.93862963
0.78359297
0.73603196
0.7271305
0.75352062
0.79811468
0.67208979
0.56476867
0.29418801
0.020922473
0.002005235
0.00011972496
0.00011971981
0.00011944222
0.00011944256
0.00011943133
0.00011943212
0.00012316519
0.00065903677
0.0047439567
0.020373119
0.11743839
0.7859224
1
0.006913538
2.4559662e-05
0.0076818754
0.3862705
0.020630313
0.0010069686
5.0977308e-05
0.00011018571
0.0014004194
0.012327493
0.089769022
0.40016373
0.71495689
0.95490852
0.99840171
0.9985768
0.99514461
0.99548367
0.99957895
0.9999733
0.99997265
0.99986607
0.99952974
0.99924921
0.9991512
0.9983511
0.999318
0.15320764
0.031194684
0.0015936968
0.00018032725
1.1818265e-05
4.3239409e-07
4.1699239e-07
3.3247952e-06
1.9277663e-05
2.1304547e-05
2.9028879e-06
1.0703253e-07
6.4647531e-09
9.6840495e-10
-3.0864672e-32
-1.1060722e-23
-4.1671862e-21
-6.3867627e-20
-3.3096785e-19
-1.0758834e-18
-1.6487419e-18
4.3767668e-17
2.0897481e-17
2.0907714e-17
1.4790451e-17
7.710559e-18
1.4612141e-18
-1.9049132e-18
-4.209704e-18
-5.1006266e-18
-4.551013e-18
-2.7294417e-18
-1.0881385e-18
8.149058e-19
8.2742485e-19
8.5872734e-10
4.317025e-08
2.0404648e-08
9.2895711e-09
6.9691677e-09
6.9468532e-09
7.3937734e-09
8.0904027e-09
8.8600519e-09
8.7836212e-09
7.0879792e-09
4.3350206e-09
2.2091751e-09
1.1491598e-09
6.5709731e-10
4.3599017e-10
4.3598918e-10
5.0981748e-10
6.8949287e-10
5.8949021e-09
7.228938e-09
9.2545249e-10
1.580679e-07
0.20419398
2.2223428e-07
2.3380014e-08
3.1000751e-10
3.0997333e-10
2.7457527e-10
2.4517371e-10
2.1334985e-10
2.1576645e-10
2.0994597e-10
1.8358717e-10
1.5205447e-10
1.5203802e-10
1.5202156e-10
1.4758404e-10
1.0504522e-10
1.2972802e-10
9.8974302e-11
0.10460783
0.96522262
0.67389803
0.20512919
0.01459166
0.00023427291
7.7392025e-07
5.3150744e-10
3.3983246e-11
4.6238721e-11
8.0075024e-11
7.3810772e-11
4.7661356e-11
3.2607946e-11
1.8635815e-07
4.9894341e-05
0.003215804
0.00088477202
7.2147487e-08
8.1047251e-08
1.5859593e-07
6.4001742e-06
1.8656165e-05
7.9149509e-08
0.0011236631
0.0007765245
0.0010195907
0.0015812156
0.096817014
0.30974566
0.48179782
0.15892365
0.38148542
0.29163428
0.33009305
0.32417685
0.22918596
0.1212273
0.01155166
0.00077651928
0.00067012217
0.00039782854
0.0002784896
0.00011944265
0.00011943151
0.00011943218
0.00011942165
0.00011942174
0.00013101856
0.00021537135
0.00046609423
0.0028584383
0.059767085
0.0070725504
2.0198066e-05
1.1351343e-05
0.010103734
0.037933718
0.0012343304
5.096782e-05
8.4159963e-05
0.00087249926
0.0095962832
0.064283335
0.53056606
0.96518062
0.99981255
0.99993931
0.99997738
0.99984188
0.99894781
0.99904739
0.99997331
0.9999733
0.99996431
0.99977762
0.99950621
0.99964238
0.99970232
0.99969497
0.99994375
0.99999976
0.9999921
0.99999201
0.70906708
0.1606048
0.052156885
0.0035483485
0.00058955855
0.00015409735
1.3241541e-05
4.2871443e-07
5.5950257e-07
2.6005944e-06
1.1468746e-06
2.9734784e-07
6.3811942e-08
1.3669066e-08
8.9742847e-09
3.3541944e-09
-3.2643982e-31
-4.0753892e-23
-8.6743254e-21
-8.6496555e-20
-3.1118858e-19
-9.7699056e-19
-1.858756e-18
3.5551707e-17
3.1256667e-17
2.2272067e-17
1.3816718e-17
6.2551749e-18
-2.2515657e-20
-5.1000865e-18
-1.0169149e-17
-1.269059e-17
-1.224349e-17
-8.8730047e-18
-2.9347312e-18
-9.5579693e-19
1.9170783e-17
7.1403887e-08
2.8445691e-08
7.7259114e-09
3.0827547e-09
1.5031457e-09
1.0395279e-09
1.0395626e-09
1.0395282e-09
1.0388757e-09
1.0074679e-09
8.6643156e-10
7.1527339e-10
5.1334808e-10
4.9122034e-10
4.3598979e-10
3.1476522e-09
6.8969667e-10
7.6934764e-08
7.1428088e-08
2.468672e-08
2.7513252e-09
4.1150818e-10
1.5554955e-10
1.5553927e-10
1.5552907e-10
1.5551895e-10
1.5208732e-10
1.520709e-10
1.5276754e-10
1.7501966e-10
1.433945e-10
1.0504524e-10
1.2206193e-09
3.6768548e-06
0.99745152
0.87023771
0.44255858
0.068822484
0.0025681115
1.9856664e-05
3.0538415e-08
3.9811384e-11
3.0123665e-11
5.3939379e-11
6.8710104e-11
5.6709136e-11
3.2603805e-11
3.3935087e-09
6.1126651e-11
0.00066589969
0.0028763353
0.22512851
0.0071127993
0.00070527484
7.214494e-08
8.3990692e-08
8.1263077e-08
8.1259956e-08
8.4784123e-08
7.928939e-08
1.8860346e-08
1.9025001e-08
1.8860346e-08
1.9025001e-08
1.8860346e-08
0.00091569082
0.0082375405
0.039427118
0.041373235
0.022930173
0.029964766
0.0084078816
0.0074062137
0.007760058
0.0041662182
0.0084194678
0.022511157
0.029372509
0.022846531
0.001529513
0.00011943224
0.00011942148
0.00011942141
0.00011941184
0.00011941299
0.00032946945
0.00049802239
0.00049814886
0.0037667575
0.0050024963
0.43775144
0.032308467
4.6302464e-05
1.1349946e-05
0.00090713263
0.0090235157
0.45769504
0.028962365
0.0010162754
4.662642e-05
5.5901837e-05
0.00070636735
0.011346102
0.13362921
0.57005315
1
0.99996864
0.99957915
0.9997744
0.99996781
0.99998823
0.99997587
0.99981353
0.99942198
0.9993812
0.99994592
0.99994683
0.99943192
0.97209299
0.73749825
0.21212758
0.070361811
0.011415718
0.0019934337
0.00083500925
0.00019214902
6.9443411e-06
3.4368717e-07
2.950366e-07
1.7617957e-07
7.5638456e-08
5.27834e-08
5.2995198e-08
8.9904495e-08
6.0007321e-08
7.2420438e-09
-4.2065192e-30
-1.6032152e-22
-1.7640998e-20
-8.5263007e-20
-2.4110765e-20
-2.6751774e-19
-1.9670766e-18
-2.7028488e-18
1.5033697e-17
2.6766033e-17
2.0624957e-17
1.3482281e-17
6.9863668e-18
1.2752544e-19
-8.3301623e-18
-1.5890746e-17
-2.0128886e-17
-2.0414741e-17
-1.6065582e-17
-7.7353633e-18
-2.1059208e-18
9.4515884e-08
3.4356733e-08
1.3308219e-08
3.5683613e-09
1.336754e-09
1.0395282e-09
1.0395622e-09
1.0450363e-09
1.0091265e-09
9.1120362e-10
8.3401937e-10
7.2361895e-10
8.0344137e-10
5.0030771e-09
1.2202729e-08
2.2302616e-09
2.2303227e-09
1.1124781e-09
4.3926479e-10
2.333101e-10
1.8188561e-10
1.6505552e-10
1.6517918e-10
1.6779889e-10
2.0038348e-10
2.5388049e-10
1.9578391e-10
8.392599e-10
4.9540654e-08
2.2282222e-05
0.98179008
0.77782843
0.2893529
0.022606615
0.0003779003
1.9856696e-06
3.4136701e-09
3.0123634e-11
3.0123665e-11
4.6087277e-11
5.4498915e-11
4.0263262e-11
7.3325404e-11
6.1112554e-11
3.0004825e-11
0.00048291059
0.00053565818
0.00047615359
0.00035255639
3.385141e-06
3.3839825e-06
3.141919e-06
2.3647702e-06
1.6542172e-06
1.4931367e-06
1.6339344e-06
1.3223009e-06
5.1784628e-07
1.7859071e-07
1.3221156e-07
1.1975108e-07
7.4221654e-08
3.8223665e-08
6.8760504e-07
4.3057796e-05
0.0048265103
0.016115965
0.0024642996
0.0024734096
0.0098261039
0.00306818
0.00306818
0.00306818
0.081196248
0.25098337
0.35390498
0.28740993
0.056630618
0.00087247459
0.00011942116
0.00011941148
0.00011941006
0.00011940306
0.00019231825
0.00050422234
0.00083247957
0.00083263085
0.0008327849
0.46018994
0.94263778
0.99866029
0.97099069
0.74350915
0.19909782
0.0027754078
7.6844375e-05
6.7742631e-06
6.5128945e-05
6.5146841e-05
0.081079067
0.020193525
0.00059359547
4.5810122e-05
6.096465e-05
0.002460815
0.045723899
0.11677937
0.99990829
0.99994937
0.99998801
0.99999733
0.99998818
0.99975538
0.99816453
0.99307824
0.98415738
0.97169982
0.85665502
0.65654659
0.26779336
0.038897945
0.0088256351
0.0021330955
0.001827221
0.00019913391
2.6555897e-06
3.2392392e-07
6.569456e-08
6.0033615e-08
6.1047189e-08
1.9799471e-07
6.6762056e-07
6.7594549e-07
1.2865526e-07
3.1227193e-09
-5.7179856e-29
-6.0410506e-22
-3.0966938e-20
4.8444173e-20
1.2146544e-18
2.9192143e-18
1.4615622e-18
2.0465043e-19
-7.5242822e-19
1.1799988e-05
9.5869069e-19
9.7051941e-19
1.1582623e-18
7.444891e-19
4.7424769e-19
-4.606818e-19
-3.4739379e-18
-9.6957904e-18
-1.8483971e-17
-2.5979772e-17
-2.8417739e-17
-2.5380755e-17
-1.5293522e-17
-6.1888761e-18
1.8635343e-07
4.1814032e-09
2.8872949e-09
2.3118353e-09
1.8269615e-09
1.3758696e-09
1.3024969e-09
1.3280153e-09
1.3275771e-09
8.3392499e-10
2.6464912e-09
8.0337087e-10
6.324833e-08
2.3127183e-07
5.0552294e-08
9.664263e-09
2.1253115e-09
7.3503004e-10
3.597115e-10
2.9318049e-10
3.1195864e-10
4.4165181e-10
5.5088196e-10
4.2487685e-10
6.3570801e-10
1.4866744e-07
1.0727731e-06
9.2623455e-06
0.96766958
0.68655252
0.32215301
0.018746001
2.6883177e-09
2.6898402e-09
7.2457007e-10
7.0561319e-11
4.6085478e-11
4.9574213e-11
4.8293335e-11
2.9196489e-11
2.9100904e-11
2.9995873e-11
6.7776199e-06
1.9730464e-05
1.4307938e-05
8.3352712e-06
5.7546291e-06
4.9624545e-06
1.4343794e-05
2.3651426e-06
1.1495013e-05
1.4997031e-06
1.7605344e-06
1.9148033e-06
1.7130712e-06
7.768157e-07
2.813307e-07
1.0236962e-07
3.2998845e-08
1.1765195e-08
6.8151028e-09
9.4722276e-08
0.00036749937
0.0042355164
0.0007336255
0.026523534
0.35893153
0.77951178
0.56920673
0.075472639
0.0046082365
0.00013284925
0.00011940175
0.00011940748
0.00011940702
0.00013616694
0.0006679613
0.0026479959
0.016891946
0.14944611
0.75036362
0.99061606
0.98960974
0.97997643
0.96698147
0.70397683
0.24913468
0.092102017
0.0075517912
8.256419e-05
1.2816327e-06
8.2429986e-05
0.0015305243
0.097730629
0.046272072
0.011130585
0.00029625462
4.5783983e-05
5.8550422e-05
0.0021542498
0.12177713
0.99999886
0.9999982
0.99999816
0.99994175
0.99995759
0.99984307
0.99675727
0.95079964
0.87602904
0.61790243
0.24122627
0.079858942
0.015445889
0.0038480495
0.0023123817
0.00010409628
1.3660312e-06
2.556079e-07
6.0033615e-08
6.0379433e-08
1.1424845e-06
5.183049e-06
5.6871944e-06
1.4847826e-06
6.2240565e-08
5.4490295e-10
-6.5524677e-28
-1.8491326e-21
-3.5412031e-20
5.9806062e-19
4.9395869e-18
1.2849882e-17
1.911756e-17
1.1681177e-17
6.6889736e-18
7.9294311e-18
1.2593331e-18
1.2744793e-18
2.108684e-18
2.0688484e-18
1.360163e-18
-2.3919191e-19
-3.0558103e-18
-7.7852361e-18
-1.5272368e-17
-2.5784834e-17
-3.3689467e-17
-3.4112462e-17
-2.7669342e-17
-1.3854099e-17
4.9408186e-09
4.939203e-09
4.1576102e-09
2.8809871e-09
1.9678408e-09
1.194808e-09
1.194799e-09
1.194808e-09
1.0405068e-07
5.8566942e-09
5.8503727e-09
5.0911841e-09
4.5191977e-09
4.0557406e-09
3.6590155e-09
2.7472417e-09
1.2988187e-09
5.501716e-10
6.3156252e-08
1.0763946e-05
2.2168981e-05
6.3062405e-05
0.47788483
0.12473377
0.014967334
8.2648044e-10
8.2668327e-10
3.0047279e-10
6.8591402e-11
4.5395891e-11
4.5389802e-11
4.1747344e-11
2.6070503e-11
2.6066446e-11
4.6074829e-09
4.7779745e-08
4.7786645e-08
4.1222807e-06
5.2249284e-06
4.9641015e-06
0.00012530571
0.18218102
2.5414199e-05
1.914886e-06
2.4517522e-06
2.4547678e-06
1.1248503e-06
2.1940774e-07
2.3512518e-08
6.8165419e-09
6.806813e-09
6.8150999e-09
2.0503285e-05
0.00079499079
0.00073362658
0.01216654
0.0042498508
0.00026078343
0.00011940728
0.00013093622
0.00043399937
0.0015321217
0.0067323585
0.029493923
0.31939841
0.61296587
0.88813277
0.97571856
0.95953085
0.84508762
0.50687811
0.33558624
0.054186003
0.0015818235
7.0105965e-06
1.1713898e-06
6.6754714e-06
0.0020977332
0.009738472
0.29752991
0.035730721
0.018504841
0.004825592
0.00013254073
4.5757712e-05
6.2129329e-05
0.0030170396
0.56772131
0.99999801
0.99998851
0.99995877
0.9999436
0.99682211