/*--------------------------------*- C++ -*----------------------------------*\
  =========                 |
  \\      /  F ield         | OpenFOAM: The Open Source CFD Toolbox
   \\    /   O peration     | Website:  https://openfoam.org
    \\  /    A nd           | Version:  6
     \\/     M anipulation  |
\*---------------------------------------------------------------------------*/
FoamFile
{
    version     2.0;
    format      ascii;
    class       volScalarField;
    location    "0.22";
    object      p;
}
// * * * * * * * * * * * * * * * * * * * * * * * * * * * * * * * * * * * * * //

dimensions      [1 -1 -2 0 0 0 0];

internalField   nonuniform List<scalar> 
9137
(
8223.999
8189.0163
8175.1359
8168.5254
8163.2458
8158.0868
8152.3286
8145.6565
8138.6473
8133.779
8135.1807
96.309792
2862.0496
2403.0391
1230.4678
876.79885
779.02577
726.38494
725.54836
725.37866
725.32112
725.31961
725.31964
-2014.4399
-1532.6978
2647.0403
2820.4335
3275.4741
486.07786
-1613.0535
-3297.2944
1983.1772
-508.66435
4847.6885
4880.5706
4892.7036
4923.9036
4775.8321
4787.2503
4806.5885
3499.3465
665.9875
-672.43908
-1113.8883
-1131.064
-1131.0312
2892.6746
2892.6761
2892.6846
2892.6753
2892.6677
2892.6595
2892.6567
2892.663
2892.6636
1927.0374
1927.037
1927.0379
1927.0371
1927.0372
-11418.089
-6012.9313
-2896.2898
-1328.2697
-1152.0935
-1161.8549
-1180.5858
-1203.8316
-1228.9419
-1254.9858
-1279.0682
-1296.4569
-1308.6035
-1317.3919
-1323.8802
-1329.4834
-1335.1806
-1341.4751
-1348.3124
-1355.4067
-1362.4739
-1367.7443
-1359.7845
-2234.0576
-4318.2591
-4829.7436
-5826.4406
-5841.9834
-5840.7576
-5841.4104
-5841.5663
-8583.6766
-8583.6128
-8583.7345
-8584.168
-8584.4347
-8583.97
-8582.01
-8577.6194
-8575.1324
-8576.6845
-8567.917
-8566.1047
-8563.4537
-8561.4277
-8559.9101
-8558.7865
-8558.1074
-8557.7831
-8557.0544
-8235.6471
-7335.5036
-6090.2548
-4291.6453
-3230.6952
-2988.1865
-2977.0245
-2992.0197
-3007.6429
8192.5521
8181.7168
8174.0378
8168.257
8162.9291
8157.5964
8152.1272
8146.5816
8141.2057
8139.5771
8141.1632
8142.4756
4622.0461
6507.1734
4478.8259
2900.0416
1196.4587
720.47186
723.0531
725.08047
725.23623
725.29163
-2074.386
4393.5555
6267.8488
6446.7567
6447.9855
5580.7963
1215.204
1463.3657
4767.3339
4454.1582
5547.8931
5533.6376
5697.7133
5084.0728
4808.0538
4859.2463
4880.4997
4873.2568
4854.6904
4820.914
4799.8798
4788.6715
4784.0956
4782.7709
4780.9418
4785.5503
4789.9805
4793.3823
4782.0686
4576.7812
2687.6856
150.60832
-1120.041
2892.668
2892.6845
2892.6747
2892.6694
2892.6603
2892.6591
2892.6674
1927.0379
1927.0363
1927.0382
1927.037
-6346.8129
-1737.4006
-1135.654
-1155.2803
-1159.7576
-1169.9448
-1186.5707
-1207.9612
-1231.2347
-1255.2878
-1278.6273
-1294.2826
-1305.6183
-1314.7662
-1321.9873
-1328.2903
-1334.4909
-1341.0677
-1347.8207
-1354.6107
-1360.7312
-1365.7413
-1369.4166
-1376.6839
-1372.2917
-2968.018
-4027.2849
-5574.15
-5841.6359
-5841.8618
-5841.9005
-8583.9846
-8583.6951
-8584.206
-8584.5643
-8584.465
-8583.6068
-8581.563
-8578.7566
-8572.6002
-8568.3217
-8563.5476
-8562.1677
-8561.1849
-8559.917
-8558.6938
-8557.7018
-8550.7826
-8282.0297
-7126.387
-4897.9396
-3287.7334
-2976.4967
-2985.6712
-2987.693
-2991.6061
-3005.0402
-3014.1345
8180.0211
8176.7258
8172.5528
8167.717
8162.6834
8157.1765
8151.3125
8145.3526
8139.238
8134.276
8132.081
8127.6107
8125.0627
7929.1622
7902.6882
7920.085
7608.8804
4977.3403
683.66664
707.49779
6421.4106
6439.1171
6444.014
6447.9425
6444.9534
3833.542
4493.5335
5526.1917
5532.3191
5546.0037
5464.3296
5404.9603
5368.1153
5320.8763
5169.5879
4961.9032
4900.7648
4890.9588
4892.4641
4877.4776
4844.8417
4820.4878
4807.9269
4800.3314
4795.4315
4792.9726
4791.9701
4792.9611
4795.1543
4797.5595
4798.7444
4813.2281
4398.6963
2372.822
-226.56902
2892.6518
2892.6593
2892.674
2892.6716
2892.6547
2892.6801
2892.6746
1927.0327
1927.0388
1927.0359
-3137.5325
-1150.44
-1145.0548
-1151.1401
-1160.2755
-1171.941
-1188.385
-1209.669
-1233.0917
-1257.608
-1286.3898
-1298.5639
-1307.2828
-1315.0422
-1321.3486
-1327.3312
-1333.6789
-1340.704
-1347.8333
-1355.101
-1361.793
-1367.9067
-1374.6742
-1383.9601
-1393.7842
-1426.3681
-3131.2357
-4481.9248
-5736.0795
-5850.2647
-8584.5885
-8584.6814
-8584.4728
-8585.1313
-8585.3548
-8585.5003
-8584.0093
-8562.3312
-8561.442
-8561.2592
-8560.1921
-8559.3697
-8561.8092
-8554.286
-7777.4182
-5432.8152
-3566.207
-2993.4816
-2985.0174
-2985.529
-2988.2779
-2996.2383
-3008.8579
-3016.2763
8173.9448
8173.7272
8171.5122
8167.6344
8162.7391
8156.7422
8149.7039
8142.0378
8133.8896
8125.0894
8116.6281
8103.9279
8079.0384
8058.6798
8984.1831
7905.595
7919.5727
7925.1238
7934.0018
7949.3763
7795.68
6432.2905
6443.7029
6445.125
6447.4577
6450.8925
6455.6877
6490.7752
5434.794
5491.7987
5502.9735
5493.2192
5453.2949
5404.1535
5346.1239
5264.9946
5148.5122
5033.8765
4942.3893
4892.8517
4865.07
4831.5733
4808.3196
4798.8048
4796.2155
4794.8139
4794.4105
4794.5308
4795.0358
4796.1832
4797.9242
4799.6304
4801.1109
4804.3247
4802.5653
3263.5802
-1017.184
2892.6204
2892.6594
2892.6856
2892.7019
2892.7068
1926.9699
1927.0251
1927.0507
-1141.6334
-1141.6297
-1143.989
-1149.522
-1158.4535
-1170.5232
-1191.499
-1212.9628
-1232.5314
-1246.7179
-1309.5733
-1307.9225
-1312.1705
-1316.8753
-1321.1703
-1326.2069
-1332.2287
-1340.2884
-1348.0071
-1356.0331
-1363.2401
-1370.5848
-1378.4052
-1387.1047
-1395.6475
-1388.0234
-1732.9029
-3702.577
-6112.087
-8585.8356
-8584.6254
-8585.9123
-8586.0996
-8585.9283
-8584.8044
-8732.3728
-5482.9318
-3000.5287
-2990.9803
-2987.8455
-2987.7354
-2990.9285
-2999.3644
-3011.6183
-3019.0258
8171.7525
8172.7622
8171.5828
8168.2229
8163.1723
8156.2348
8147.2288
8136.7484
8125.176
8113.1874
8100.828
8084.853
8059.9809
8018.2406
7993.5124
7967.1257
7948.1393
7939.828
7919.9435
7926.939
7930.1687
7933.9465
7938.2564
7936.8036
6431.934
6440.5165
6444.4324
6446.2173
6447.0842
6448.299
6453.8345
5508.19
5526.5736
5509.1731
5503.5886
5488.0376
5449.5577
5396.8534
5330.0361
5244.4572
5137.353
5027.3872
4937.4822
4873.5108
4822.0389
4771.2244
4761.6866
4769.2262
4776.5568
4781.0555
4785.1846
4789.2243
4792.5096
4795.3557
4797.6584
4799.398
4800.9527
4803.2577
4811.5489
3693.0748
2892.5533
2892.6283
2892.6798
2892.8577
1926.904
1927.0789
1927.098
-1149.2314
-1139.6708
-1140.1826
-1145.3669
-1151.9671
-1156.3274
-1158.7081
-508.01873
-1343.6289
-1311.1088
-1317.5891
-1319.0684
-1320.5826
-1324.2775
-1329.7027
-1339.7682
-1348.2574
-1357.2227
-1363.9163
-1372.7361
-1382.6409
-1392.4729
-1402.413
-1394.1757
-1565.6584
-3813.4601
-8586.9029
-8587.2733
-8587.1844
-8586.9048
-8584.8821
-3573.0657
-2981.2221
-2988.0359
-2988.1784
-2989.38
-2993.6095
-3002.5617
-3014.7938
-3023.0053
8172.1749
8173.4354
8172.5783
8169.2774
8163.7362
8155.6835
8144.7889
8130.8607
8114.954
8099.8853
8086.2171
8070.4737
8049.5172
8022.4081
7995.5323
7972.3941
7954.927
7942.5883
7934.2468
7932.8433
7932.473
7932.0771
7930.9961
7928.4584
7933.3443
6431.9089
6429.8882
6438.9445
6443.456
6443.9651
6442.2638
6439.4334
6436.5126
6436.9401
5524.2899
5523.692
5515.7373
5504.3125
5484.8336
5449.2144
5396.8973
5320.2942
5182.1278
5105.2457
4990.5366
4910.1269
4857.9475
4810.3496
4670.0798
4703.353
4733.3317
4754.1621
4767.657
4776.2596
4781.5514
4786.3012
4790.7565
4794.0082
4796.3413
4798.1147
4799.3901
4788.2818
4666.1359
2892.3921
2892.5681
2892.7369
2893.1823
1926.2695
1926.8402
1927.2687
-1140.5722
-1132.7294
-1134.0839
-1140.2027
-1149.3816
-1152.9426
-1312.4387
-1324.3913
-1322.3551
-1318.7562
-1321.2707
-1318.1467
-1339.8125
-1339.5375
-1372.9806
-1362.5475
-1373.3588
-1387.9412
-1413.1153
-1459.456
-1522.8227
-1646.6732
-1085.8191
-8590.4863
-8588.9171
-8588.7934
-8587.4845
-2990.9358
-2985.5272
-2987.492
-2988.7276
-2991.0462
-2996.1679
-3005.4517
-3017.698
-3027.0683
8174.6402
8175.6784
8174.9586
8171.8649
8166.1103
8156.9563
8143.5437
8124.6574
8105.0715
8086.5415
8072.6147
8058.8906
8040.3149
8015.6946
7990.9216
7971.1256
7956.6265
7946.7215
7939.7531
7935.6573
7932.3154
7928.1189
7921.8481
7910.0008
7883.2507
7863.3821
7839.9428
7819.2394
7792.5119
7756.697
7762.2696
6832.6638
6392.2672
6421.4382
6430.4152
6438.5927
6441.1107
6438.3625
6432.121
6421.3084
6400.5579
6353.6416
6319.6337
6254.3608
6223.0884
5516.6572
5516.8603
5523.7741
5519.5563
5508.3246
5490.6222
5461.5729
5419.828
5352.1962
5270.6986
6022.1628
4582.363
4662.8441
4702.7829
4731.786
4750.6185
4764.5343
4773.5771
4779.1439
4783.6445
4787.5376
4790.6322
4793.2034
4797.1602
4816.0511
2891.9078
2891.6203
2892.9336
2893.9397
1807.5462
1912.3709
1919.0306
1920.5082
1924.248
1926.2418
1927.1966
1927.6288
-1125.9897
-1120.9245
-1123.5746
-1131.2929
-1147.5777
-508.76829
-1332.2466
-1317.8552
-1320.0704
-1295.3948
-1339.4141
-1231.2338
-1169.1803
-1579.8374
-1648.5841
-1610.6159
-8593.5635
-8590.5069
-8590.3977
-8589.0817
-2988.5756
-2987.8746
-2987.3925
-2988.9257
-2992.2894
-2998.1559
-3007.6198
-3019.8672
-3030.3516
8178.8313
8179.5609
8179.013
8176.4222
8171.0347
8161.3776
8145.6825
8113.8474
8087.5199
8075.9092
8060.8633
8051.8034
8035.1839
8008.598
7983.7585
7965.7417
7955.8661
7949.1183
7942.797
7937.3109
7932.0205
7925.6546
7917.3241
7904.6046
7886.8701
7863.2702
7836.6626
7809.6552
7780.4736
7749.829
7717.8949
7693.6032
7617.8624
6801.5858
6598.0159
6579.0482
6417.3128
6430.0706
6436.9489
6439.3219
6436.7656
6429.0647
6418.7369
6403.0918
6378.4214
6342.973
6293.2345
6234.4308
6171.2206
6123.8757
6052.7713
5975.697
5963.6765
5541.0145
5530.0315
5530.4062
5532.128
5528.0766
5518.8145
5503.9464
5481.8808
5452.8447
5396.5587
4680.91
4708.2924
4728.9846
4743.1093
4754.6342
4764.0366
4770.9309
4775.541
4778.9823
4781.4776
4782.9537
4784.8819
4791.3348
2889.5927
2893.1968
2895.2135
1419.8274
1822.3912
1787.739
1922.9032
1912.8215
1919.8683
1924.0745
1926.8702
1927.3292
1928.1178
1927.895
-1101.5492
-1103.094
-1106.9088
-1111.5328
-1130.9385
-1697.7975
-1656.9305
-1720.2597
-8594.2012
-8591.4842
-8591.0382
-8591.5156
-8589.8814
-2976.2879
-2983.6626
-2985.5281
-2988.3207
-2992.6843
-2999.2228
-3008.8672
-3021.1491
-3032.5406
8184.2503
8184.5703
8184.103
8182.2495
8178.301
8171.5521
8162.461
8143.3486
8040.1214
8047.3791
8053.7354
8040.6334
8002.583
7977.5751
7955.3282
7951.0686
7949.3538
7945.0316
7939.2112
7932.7775
7925.4563
7915.7613
7902.5902
7885.1525
7862.073
7835.545
7806.4308
7773.772
7736.3276
7689.4836
7615.6263
7496.7158
7389.1506
7239.9971
7099.6367
7050.5546
7039.2468
6642.6685
6534.5232
6549.6209
6524.1041
6466.8395
6450.8041
6445.6198
6439.6899
6430.6165
6418.147
6401.6283
6381.6075
6355.1771
6320.6038
6274.5064
6221.2837
6164.754
6103.5959
6032.5473
5964.2122
5893.174
5829.1521
5745.1457
5676.9196
5630.9609
5602.4721
5585.3063
5571.0806
5555.1208
5540.2291
5553.958
5544.2545
5543.5993
5544.6036
5541.4996
5533.6841
5520.8334
5505.888
5492.2567
5488.4227
4752.2415
4727.8017
4733.6228
4742.0529
4750.1756
4757.332
4763.3316
4767.3103
4769.391
4770.2796
4769.1917
4766.074
4751.4009
2885.0352
2894.3597
2897.0361
2903.3405
2078.0351
3171.4864
2269.4476
2631.508
2350.1635
2459.8307
2170.8803
1967.6329
1925.9033
1926.6052
1927.5603
1929.8263
-1074.987
-1083.6694
-1089.4876
-1117.2487
-1745.3483
-1727.3951
-1750.9693
-1778.9629
-8596.7139
-8595.7974
-8594.9365
-8591.3473
-8592.2519
-8592.9901
-8590.6099
-2971.829
-2980.0696
-2980.372
-2983.203
-2987.131
-2992.2685
-2999.3385
-3009.0934
-3021.2698
-3033.241
8190.2213
8190.1307
8189.8863
8189.0433
8187.0426
8184.6161
8186.005
8181.2064
7932.9115
7935.9748
7941.0096
7946.3235
7945.5752
7941.0792
7934.8581
7927.074
7916.7096
7903.2983
7886.0549
7864.0862
7837.4846
7805.8028
7768.7757
7723.5231
7665.4033
7585.2834
7477.1973
7344.9132
7200.9728
7068.9215
6932.8348
6847.3869
6785.2457
6722.5155
6672.2266
6636.2049
6612.5567
6596.9014
6585.2368
6577.8901
6574.1181
6568.4252
6493.168
6574.0332
6553.7743
6543.9031
6523.8754
6489.6829
6467.0264
6452.7398
6439.0869
6423.9261
6407.6775
6386.9554
6362.47
6334.5037
6301.7126
6259.9623
6209.4763
6152.1759
6088.4583
6019.1903
5949.8811
5883.4343
5798.2341
5722.2704
5675.77
5645.0127
5620.0434
5601.7034
5587.5445
5576.6499
5569.8913
5568.6542
5565.3351
5563.1594
5562.1793
5559.2271
5550.9981
5538.3597
5524.4409
5512.2204
5536.4066
4571.5344
4722.071
4733.022
4741.331
4748.2437
4753.4336
4757.425
4760.3282
4761.3882
4760.4062
4757.3906
4753.9456
4754.7233
4745.634
2875.8172
2898.973
2898.8977
2914.6891
3748.3961
3766.8993
3780.9933
3770.5218
3774.6049
3619.1344
3330.8775
3032.349
2520.7781
2083.1544
1943.453
1931.7905
1934.0181
-1117.1318
-1064.2119
-1064.6184
-1074.3445
-1773.9666
-1756.3531
-1763.8486
-1776.4815
-1789.6398
-8601.8263
-8600.2136
-8599.4479
-8596.3807
-8595.7239
-8594.8771
-8594.3016
-8594.949
-8591.6578
-2961.4348
-2966.8822
-2972.2019
-2976.6464
-2980.8099
-2985.458
-2991.2292
-2998.7378
-3008.521
-3020.342
-3032.5846
8196.1551
8195.7612
8195.8032
8195.9285
8195.5407
8195.3041
8195.0132
7922.9655
7932.8322
7943.1674
7945.6088
7942.7345
7937.1265
7929.1306
7918.781
7905.7125
7889.0972
7868.0176
7841.8343
7808.5486
7768.6552
7718.2187
7647.6352
7549.9256
7433.2602
7297.6127
7153.3297
7026.5393
6919.4509
6835.4333
6765.1661
6715.1839
6678.9888
6649.7638
6628.2051
6612.5669
6600.5948
6590.5652
6582.005
6570.6895
6550.5353
6567.9971
6559.6669
6545.6578
6527.6632
6501.9026
6478.1691
6458.6786
6438.7596
6418.6773
6399.6437
6377.6944
6349.6649
6321.0448
6289.922
6250.1079
6200.9932
6142.928
6077.8605
6008.7844
5936.9895
5857.707
5743.9894
5690.8437
5667.8284
5651.2579
5633.6481
5618.8783
5606.8663
5597.6386
5591.3226
5589.3257
5586.9473
5585.4306
5585.0108
5581.5327
5572.0194
5557.9279
5538.2571
5516.4507
2068.2517
4084.1879
4690.5686
4727.5864
4741.5419
4748.1999
4751.7908
4753.9947
4755.2011
4754.8343
4752.4637
4747.5416
4740.7206
4731.5658
4709.3988
2836.1456
3114.9055
3235.2309
2930.7764
3763.7797
3760.4135
3758.4958
3762.8666
3765.4099
3765.4891
3764.7584
3761.7256
3764.376
3692.3995
3427.666
2629.0841
2067.5729
1926.8234
-1028.0643
-1026.1016
-1001.4349
-1799.4435
-1776.0607
-1769.1946
-1770.3922
-1774.6707
-1758.7543
-2444.4232
-6207.8975
-8148.2939
-8530.1525
-8618.0912
-8613.4909
-8609.3925
-8605.5852
-8601.4846
-8599.53
-8597.6527
-8596.115
-8594.9535
-8594.2449
-8594.2942
-8591.0787
-8592.326
-3001.7169
-2982.1022
-2961.7728
-2966.6899
-2971.0085
-2974.767
-2978.8998
-2983.8929
-2990.1042
-2997.9486
-3007.8727
-3019.7522
-3032.1526
8201.3991
8200.965
8201.4298
8202.5555
8203.7026
8206.1174
8210.1249
7931.8279
7943.1136
7946.1152
7943.9222
7938.6878
7931.0265
7921.2762
7909.0661
7893.7099
7873.8941
7848.9633
7814.9425
7776.0626
7720.0773
7671.0456
7570.7561
7440.5824
7267.5741
7081.8634
6925.4362
6812.4274
6812.5185
6728.7128
6692.1256
6675.2674
6660.167
6645.546
6631.6535
6619.7415
6609.4377
6599.3443
6589.674
6575.8535
6573.5251
6565.775
6552.2295
6535.533
6513.2287
6488.5921
6464.9057
6440.8325
6415.2387
6393.964
6373.8384
6347.0637
6325.2493
6299.046
6263.0294
6212.9083
6148.1288
6072.2562
5995.682
5928.725
5896.4998
5621.3876
5643.0212
5652.5229
5651.9568
5644.6326
5636.4166
5626.9081
5619.2953
5613.9152
5611.0536
5608.6956
5609.1632
5609.1249
5605.9126
5598.4697
5585.724
5550.767
5610.3641
2804.6527
3799.6807
4762.7094
4756.8011
4751.8637
4751.8141
4752.175
4752.427
4751.8794
4749.7939
4746.0768
4739.811
4731.1854
4722.4159
4719.8532
4718.7471
3690.6807
3706.1796
3708.3654
3662.5271
3619.1135
3587.6534
3606.6134
2761.7498
3519.8083
3483.1792
3716.1793
3970.1129
4195.8472
4589.9106
4738.5937
4476.2854
3725.1229
3767.0257
3763.5685
3761.8608
3763.5433
3766.2969
3767.1865
3768.0158
3769.1745
3769.6162
3767.0835
3769.6903
3612.4386
2933.6727
1472.6375
-979.40811
-993.29982
-1082.8759
770.07469
-1777.3671
-1780.0735
-1777.7661
-1777.7469
-1779.2391
-1777.2482
-1869.4014
-3525.4204
-6036.6793
-8618.7934
-8614.4472
-8612.4258
-8609.3563
-8605.0638
-8602.6848
-8600.123
-8597.8735
-8596.033
-8594.6987
-8593.8592
-8593.3307
-8592.3287
-8595.1736
-2971.1668
-2951.6657
-2966.6484
-2965.0246
-2967.6502
-2970.477
-2973.6655
-2977.6857
-2982.7924
-2989.1943
-2997.2498
-3007.4215
-3019.3682
-3030.7397
8205.2776
8205.1353
8205.8976
8207.6336
8210.2276
8215.2689
8223.7708
7928.2916
7934.4882
7944.2206
7946.9329
7945.2014
7940.4026
7933.273
7924.2455
7913.3023
7900.3674
7882.2811
7861.9063
7817.8662
7812.7254
7778.4575
6709.2286
6680.5976
6669.3086
6671.6268
6669.415
6664.1118
6653.2046
6642.9125
6634.1369
6623.7957
6611.5092
6595.6178
6586.0118
6576.7651
6563.7868
6547.2366
6523.627
6499.307
6470.411
6454.186
6415.551
6415.6911
6793.8729
5546.9149
5618.6516
5628.6126
5641.9744
5648.9128
5648.9034
5644.5442
5639.6863
5634.5442
5631.0697
5629.4218
5629.5046
5629.6547
5628.3548
5625.8105
5624.6766
5630.4351
5719.3366
2590.2866
3495.5179
4468.5885
4751.147
4754.6545
4752.82
4751.8427
4751.238
4749.8819
4746.86
4741.6934
4734.0108
4723.4834
4710.1706
4694.369
4665.3959
3640.7023
3657.161
3696.1932
3676.7735
3646.9503
3615.6308
3591.9013
3569.7405
3543.8585
3519.2373
3568.7186
3553.278
3365.7574
4151.6667
3551.1546
3803.5699
3706.3769
3778.709
3959.8067
3876.488
3744.314
3762.737
3760.1948
3760.8599
3761.7186
3762.251
3762.3811
3765.3423
3767.7794
3769.7335
3771.005
3771.8775
3772.9426
3772.3494
3767.0544
3708.2005
-924.06266
-926.62537
-888.14852
-816.36897
-1774.934
-1787.4064
-1786.0457
-1784.9879
-1783.0056
-1771.7952
-1815.1387
-4424.8601
-8655.0106
-8625.8771
-8618.3003
-8612.4626
-8607.588
-8602.8283
-8602.6827
-8600.5527
-8597.4
-8595.4027
-8594.0019
-8593.0253
-8592.165
-8591.3445
-8592.0208
-8589.2443
-8586.1123
-8581.1014
-8502.9631
-6747.3061
-3491.5247
-2979.8623
-2967.2359
-2966.1214
-2966.8148
-2968.253
-2970.3617
-2973.2231
-2977.0569
-2982.0537
-2988.3524
-2996.2654
-3005.9415
-3015.9807
-3026.6247
8207.793
8207.7534
8208.7711
8210.9653
8214.787
8222.1004
8233.5017
7929.7117
7934.0368
7940.1192
7945.9448
7948.3664
7947.036
7942.6653
7935.8844
7927.6841
7918.6624
7909.0542
7888.1974
7900.1043
7849.8325
6630.1079
6640.1637
6652.5233
6667.076
6674.3226
6673.2305
6668.1967
6661.3283
6648.5813
6632.9038
6614.8353
6601.0245
6589.4984
6577.3059
6563.0902
6529.4256
6519.2545
6486.3892
5619.2111
5622.6306
5638.6892
5649.8569
5653.3717
5653.6304
5651.5574
5648.2608
5644.9615
5643.5197
5643.59
5644.0442
5644.2646
5645.0276
5649.2307
5679.971
2604.4518
2995.3993
4096.8748
4716.6637
4755.0332
4752.4739
4750.6688
4750.0853
4748.6142
4745.2655
4739.3077
4730.3024
4718.1718
4700.8567
4681.6329
4665.8656
4655.1807
5171.4208
3557.3024
3677.2057
3663.5475
3665.6117
3642.7176
3627.5178
3606.4526
3580.5321
3563.757
3552.2875
3550.6373
3561.4097
3565.8625
3520.3076
3540.2214
3551.2086
3560.8844
3577.0023
3601.1116
3631.2339
3672.775
3702.6433
3737.0852
3763.5226
3753.9723
3762.9445
3764.0955
3758.9799
3767.1811
3769.095
3771.9884
3773.1944
3773.6394
3774.4691
3773.5212
3770.2333
3765.3387
3794.9232
-162.07891
-942.95801
-896.07389
-872.49369
-858.15374
-861.66524
449.05106
-1825.2092
-1801.4747
-1797.6077
-1794.3379
-1789.4976
-1766.8989
-2200.5889
-4873.868
-8602.7291
-8604.5519
-8600.7158
-8597.6576
-8594.8379
-8593.8076
-8592.802
-8592.0133
-8590.9282
-8588.9243
-8585.6029
-8583.5741
-8581.7061
-8573.5016
-6976.0465
-3830.7313
-3070.1111
-2972.1624
-2968.1584
-2968.6191
-2968.7434
-2969.4661
-2970.9809
-2973.408
-2976.8892
-2981.5582
-2987.5116
-2994.883
-3003.4433
-3012.9952
-3023.8711
8209.0647
8209.3267
8210.5332
8212.7426
8216.885
8224.236
8234.5616
8251.6261
7925.1647
7929.6467
7936.9984
7943.8467
7949.2613
7951.7402
7950.621
7946.0857
7939.3122
7931.8877
7924.7795
7915.9654
7901.6606
6615.228
6638.914
6661.0185
6674.7415
6682.779
6684.5039
6680.7102
6670.7688
6654.751
6630.833
6611.9724
6597.9957
6588.1675
6587.4916
6571.4576
5632.8829
5639.3216
5650.2524
5655.8256
5657.3639
5656.1118
5654.3319
5652.2691
5651.2462
5651.384
5651.762
5652.1626
5653.3587
5656.941
5671.5431
2617.7061
3448.7159
4444.2383
4754.1065
4749.6519
4748.4409
4748.9788
4747.9694
4744.6587
4738.5199
4728.4745
4714.7756
4694.9166
4663.5354
4605.9941
4496.7542
4370.8474
4215.8495
4065.5236
4034.3191
3725.4174
3682.9579
3645.6547
3609.6113
3584.9499
3606.3598
3594.6731
3556.7642
3535.3838
3532.5112
3537.4296
3544.2226
3544.5478
3537.9781
3544.0286
3547.6724
3550.9466
3558.7793
3558.5155
3566.48
3708.1869
3686.4706
3748.4971
3848.283
4059.3577
4603.683
4689.0931
3776.0133
3771.4098
3771.6532
3775.709
3776.2178
3775.6777
3777.6401
3777.635
3777.9542
3785.8771
3780.1043
1254.2838
-3478.0238
-2784.9913
-2733.217
-1987.9644
-669.34755
-857.40607
-865.49194
-856.50474
-849.0889
-849.86068
-1697.6064
-1830.9214
-1812.6962
-1809.3665
-1807.3233
-1803.585
-1774.866
-2163.7788
-8594.6118
-8593.4737
-8591.4614
-8591.5306
-8591.4816
-8590.2999
-8587.8492
-8585.7289
-8584.542
-8577.7568
-7857.2586
-6516.076
-4125.2534
-2987.805
-2978.3748
-2973.1256
-2971.9202
-2971.2176
-2971.2442
-2972.1584
-2974.0643
-2977.071
-2981.2801
-2986.7959
-2993.704
-3001.4892
-3010.26
-3020.3727
8209.2522
8210.3055
8211.3829
8212.4528
8214.0444
8216.0549
8217.9153
8211.4764
8168.9797
7863.0068
7933.5545
7909.6036
7933.3151
7935.411
7943.2865
7950.6774
7956.1836
7958.8892
7957.6212
7951.8436
7943.7571
7937.8416
7930.7494
7924.3574
6650.1268
6662.1054
6676.886
6687.3372
6692.3808
6691.9638
6689.0717
6670.7113
6636.1479
6615.963
6601.0209
6583.7059
6587.4491
5625.616
5637.299
5649.9013
5656.8082
5658.9264
5658.3012
5656.4763
5654.9736
5654.1175
5654.4797
5654.6911
5654.6842
5655.2445
5657.5818
5663.8403
2801.8899
3783.9565
4505.243
4742.2133
4745.1015
4748.6995
4748.157
4745.0853
4739.5829
4730.4786
4716.3564
4695.6869
4664.9938
4616.5638
4542.656
4431.9934
4303.7789
4167.2268
4023.8208
3814.6036
3662.664
3590.4668
3471.4363
3441.4536
3625.6218
3594.6877
3517.0282
3496.5394
3499.6107
3507.9619
3518.5246
3527.8759
3533.7874
3541.5149
3546.6443
3553.7632
3576.6572
3641.5659
6129.0209
6830.5866
6144.5496
3850.1421
3767.9753
3779.9886
3779.8506
3776.3492
3781.4031
3781.6102
3786.3628
3796.5091
3814.0859
3347.0884
-1102.4147
-3056.6793
-2911.2022
-2902.6767
-2842.2938
-1954.3027
-857.51246
-812.59732
-849.66676
-847.40596
-844.29266
-840.05877
-832.99814
-1994.953
-1835.2172
-1825.9881
-1820.0543
-1819.2421
-1821.0679
-1822.1896
-1739.684
-8590.3766
-8591.377
-8588.2119
-8584.5815
-8585.5431
-8584.4747
-8582.9567
-8576.3593
-7943.2381
-6198.8701
-3995.5456
-3116.9116
-2975.9052
-2974.1052
-2974.1368
-2973.5683
-2973.2553
-2973.6515
-2974.986
-2977.411
-2981.0504
-2986.0303
-2992.3659
-2998.8988
-3006.5212
-3016.207
8209.4524
8211.194
8212.0303
8211.4608
8209.4521
8204.5999
8191.3152
8156.1408
8061.2545
8009.2326
7962.3105
7949.0872
7946.186
7946.8284
7948.6114
7954.3183
7961.1643
7966.2594
7969.4002
7967.1195
7959.4191
7946.2998
7951.2222
7933.6472
6649.1218
6663.3439
6678.7364
6689.5711
6696.8613
6701.4657
6709.519
6720.2906
5639.8907
5653.1288
5659.0484
5660.6305
5659.7801
5657.5813
5655.2138
5654.4214
5654.9259
5654.9287
5654.4088
5654.0739
5654.7427
5651.7991
4186.0003
4741.218
4754.3661
4752.429
4749.4476
4746.4743
4741.7078
4734.5241
4723.3735
4705.583
4679.7258
4640.9352
4582.2788
4495.4382
4384.1134
4190.2652
4100.5012
3871.6261
3753.8741
3879.5347
3655.2099
3658.2337
3423.8418
3448.8152
3464.7042
3476.6394
3488.9865
3503.3083
3517.4579
3528.9292
3536.5156
3551.721
3530.167
3805.4911
3786.4031
3784.578
3773.3902
3785.8074
3781.1977
3782.5245
3784.195
3785.0932
2314.4451
-61.835603
-2403.2726
-2888.4714
-2887.1145
-2466.2671
-1393.5062
-1067.6576
-818.03849
-834.27895
-835.09923
-835.57425
-833.82154
-834.09752
-825.29926
-3135.4089
-1826.2073
-1837.2351
-1828.1579
-1825.2822
-1826.097
-1827.7237
-1825.812
499.55751
-8582.5983
-8582.5404
-8579.8185
-8574.8403
-8568.381
-8547.4202
-7921.3842
-4002.2189
-2979.75
-2980.111
-2979.9163
-2978.2511
-2976.7521
-2975.7095
-2975.393
-2975.9977
-2977.6972
-2980.6097
-2984.7949
-2989.8773
-2995.5774
-3002.804
-3011.8067
8210.48
8212.8493
8213.4067
8211.2327
8205.7311
8194.4631
8171.9041
8131.4891
8074.4083
8010.7199
7961.119
7949.6836
7950.9686
7952.9766
7956.3995
7963.0686
7970.9757
7977.7025
7982.9817
7975.1604
7970.5574
7947.4376
6659.7793
6662.2895
6681.4219
6691.2417
6698.4101
6703.7958
6711.3871
6725.9731
5656.4635
5660.1474
5663.0233
5663.3847
5661.6371
5658.2659
5654.4331
5653.2754
5653.9534
5654.0049
5653.1204
5651.3002
5648.1655
5628.4749
4782.1267
4748.7723
4748.7486
4747.2099
4743.56
4738.4193
4730.8685
4718.4572
4698.9026
4668.842
4624.0123
4566.5525
4499.8344
4372.2492
4165.5347
3333.1219
3424.1595
3430.1962
3443.8088
3459.5166
3474.5655
3491.2851
3507.5562
3520.4961
3544.19
3686.5455
3781.8729
3784.2588
3758.0429
3795.2685
3779.4584
3784.4397
3791.5172
3478.0614
605.98686
-1832.404
-2867.5481
-2876.222
-2816.1307
-2004.2034
-1449.9277
-919.03622
-832.53601
-825.65243
-829.15691
-830.61335
-830.86903
-830.93833
-828.09656
-843.12788
-8619.1413
-7743.4761
-3063.2827
-1846.1505
-1834.1345
-1829.8973
-1828.9541
-1831.7726
-1834.7667
-1829.1499
769.79465
-8200.1438
-7855.7247
-3836.2941
-2984.2762
-2988.4425
-2983.629
-2980.4305
-2978.3463
-2977.103
-2976.8138
-2977.6541
-2979.7208
-2983.0252
-2986.9884
-2991.8192
-2998.4159
-3007.1893
8213.0832
8215.8465
8215.8028
8211.3279
8200.6996
8179.7828
8143.9929
8092.6773
8032.5026
7985.7371
7957.0741
7948.1034
7949.2195
7951.509
7956.2348
7965.0861
7977.164
7989.5092
8006.188
8012.5047
6681.012
6688.103
6693.9814
6699.8963
6704.9948
6711.3078
6723.778
5645.6894
5672.1464
5668.0138
5667.5939
5664.9236
5659.7082
5652.6764
5650.8738
5652.5879
5653.3698
5653.7218
5653.9594
5658.578
5700.9342
2949.2217
4740.7782
4743.9641
4745.8202
4744.2263
4741.1716
4736.8858
4728.8865
4713.4524
4691.5698
4642.7431
4622.936
4565.1102
3439.3874
3420.7106
3419.6069
3430.0051
3444.0312
3458.7822
3474.7173
3475.4481
3518.7938
3787.2435
3723.9477
3827.4548
3775.0784
3785.637
3830.0487
2775.7457
-2800.1318
-2785.9172
-2763.217
-2678.8564
-2160.0453
-1407.2461
-894.22043
-818.00927
-818.67265
-823.72527
-827.00092
-828.90785
-828.75513
-825.40779
-824.8313
-3370.6653
-8991.3057
-8810.5418
-8827.2129
-8848.6696
-8845.2918
-8842.3731
-8838.4794
-8834.6734
-8831.0247
-8827.1335
-8786.506
-8436.7901
-5138.09
-2751.2839
-1831.3228
-1828.8182
-1829.7625
-1831.5626
-1837.4944
-1847.5183
-1866.7297
-1427.2402
-2863.3804
-3006.5845
-2990.5363
-2983.6263
-2980.3148
-2978.1266
-2976.9246
-2976.8891
-2978.007
-2980.1682
-2983.3357
-2987.559
-2993.3116
-3002.4726
8218.0034
8220.7519
8219.6196
8211.9294
8194.1141
8160.5978
8112.2417
8047.4223
7985.4296
7949.4708
7935.502
7935.1741
7939.1996
7942.3711
7948.4176
7959.271
7974.1989
7990.4806
8009.8232
6706.7036
6701.6109
6696.9897
6701.8667
6705.6343
6710.4085
6718.3165
4107.8309
5672.0084
5672.4138
5672.6905
5669.7628
5659.8606
5647.0734
5645.7263
5651.1568
5652.702
5653.1935
5652.8756
5675.5929
5471.2297
239.30578
4712.3833
4739.6839
4744.8726
4744.0933
4742.7584
4741.876
4739.3243
4724.1076
4734.2822
4683.2976
3410.8191
3385.5
3398.8342
3409.8502
3419.8122
3432.1365
3458.8099
3645.681
3832.6005
3772.3082
3738.9827
-2585.3643
-2506.7766
-1808.7634
-1288.8122
-815.36789
-809.27665
-814.62424
-820.20649
-825.51776
-828.72149
-825.95411
-814.69013
-819.97989
-2033.2572
-6253.7503
-8713.8203
-8872.9646
-8855.4429
-8849.5584
-8845.0203
-8840.9054
-8836.7084
-8832.4672
-8828.2137
-8818.549
-8750.5717
-6895.5237
-3460.0181
-1837.8417
-1835.4931
-1831.6621
-1833.5577
-1842.1124
-1857.3081
-1877.4994
-1918.6219
-2911.5126
-2989.3717
-2983.1412
-2980.433
-2977.7437
-2975.7625
-2974.9737
-2975.2329
-2976.4801
-2978.9822
-2982.5437
-2987.1682
-2997.8173
8225.9228
8228.303
8226.1113
8216.0683
8194.9207
8158.8478
8102.5184
7987.7814
7910.4585
7906.4164
7908.6557
7917.0872
7924.2529
7927.9639
7932.7013
7943.2963
7957.3683
7972.005
8012.633
8500.3828
6862.7211
6695.0675
6698.3278
6701.6565
6704.6589
6705.0714
6699.4643
6708.8522
6780.3482
2022.8738
5383.3576
5688.8928
5689.6482
5683.3715
5681.3533
5634.2373
5628.9882
5647.0078
5652.2372
5647.8763
5626.0055
5355.0466
4482.4127
-1473.269
-4005.3905
-3950.9152
4750.0386
4747.853
4749.7522
4745.1469
4743.8041
4745.367
4744.9654
4736.3946
3381.306
3371.4347
3372.855
3374.7879
3374.5542
3366.4735
-4677.3118
3447.9835
2650.8386
3292.2232
1644.0078
-2338.9054
-2070.5052
-1339.8672
-805.04267
-804.43841
-810.62161
-817.97346
-827.64981
-836.28906
-830.54551
-830.42922
-843.8868
-3123.791
-7186.7306
-8936.2859
-8864.1861
-8857.7484
-8852.8067
-8847.872
-8843.1821
-8838.6141
-8834.0439
-8829.2452
-8823.2496
-8790.5538
-8723.7525
-6490.9638
-3857.3355
-1980.9799
-1847.2064
-1831.8452
-1843.7803
-1864.1252
-1887.5509
-1920.7535
-1922.8829
-1971.5043
-2991.4521
-2994.8725
-2984.1808
-2979.9207
-2975.9679
-2972.9974
-2971.3952
-2971.0121
-2971.8253
-2973.9526
-2976.8537
-2979.8839
-2994.2133
8237.0816
8238.8997
8236.2571
8227.0556
8212.4772
8188.452
8154.7942
8104.8692
7708.102
7849.3791
7875.8478
7899.2764
7912.4932
7913.259
7913.1714
7918.2648
7926.5853
7926.8789
7910.1777
7873.5914
7442.6208
6692.9363
6702.4143
6705.0418
6704.5273
6700.9424
6692.8372
6679.677
6629.6458
6612.7638
6587.6966
821.22133
2969.8233
5168.5149
5674.2311
5705.9951
5667.3618
5672.952
-4286.9694
-3465.341
-3920.8204
-3930.7786
-3910.4132
3408.7605
4762.2775
4760.06
4746.8475
4744.3592
4751.0877
4749.8345
3358.2478
3336.5501
3333.6181
3328.3187
3317.2548
3257.9396
-4064.2304
-896.54083
562.21102
303.46929
-2427.7249
-1811.3057
-1053.3494
-818.18579
-803.9918
-806.53918
-814.62846
-832.22493
-877.98711
-825.3773
-806.24255
-3192.5513
-7671.3563
-9099.8275
-9001.1606
-1952.2852
-1823.1337
-1840.1135
-1872.1288
-1896.168
-1939.1432
-1963.125
-1987.2223
-2000.2128
-2697.4794
-2989.5042
-2980.5252
-2976.2225
-2971.6626
-2968.3443
-2966.4588
-2965.6489
-2966.1826
-2968.0714
-2970.6264
-2972.0043
-2990.0215
8251.1271
8252.2491
8249.7449
8243.0735
8231.0018
8212.9764
8199.8098
8224.1535
7871.1199
7890.8451
7905.4525
7920.8947
7899.949
7897.0787
7899.3814
7902.8803
7899.52
7889.0503
7886.2067
7843.7746
7047.3145
6684.9645
6704.3258
6706.0525
6702.0927
6694.2853
6681.032
6659.6228
6626.6935
6591.0306
6549.7008
6520.9775
6471.0095
6452.4857
-103.27337
171.36904
1527.4694
1778.8837
2430.8234
2039.3886
-3903.6557