/*--------------------------------*- C++ -*----------------------------------*\
  =========                 |
  \\      /  F ield         | OpenFOAM: The Open Source CFD Toolbox
   \\    /   O peration     | Website:  https://openfoam.org
    \\  /    A nd           | Version:  6
     \\/     M anipulation  |
\*---------------------------------------------------------------------------*/
FoamFile
{
    version     2.0;
    format      ascii;
    class       volScalarField;
    location    "0.22";
    object      pd;
}
// * * * * * * * * * * * * * * * * * * * * * * * * * * * * * * * * * * * * * //

dimensions      [1 -1 -2 0 0 0 0];

internalField   nonuniform List<scalar> 
9137
(
3762.8005
3728.2036
3715.089
3709.6113
3705.8087
3702.435
3698.7157
3694.2568
3689.522
3686.8275
3690.1898
3574.2986
3574.2021
3578.6218
3579.7647
3579.8355
3580.5305
3580.5147
3580.5281
3580.5411
3580.5413
3580.5415
3580.5415
3045.191
3045.531
3045.5511
3051.8239
3057.5452
3060.3517
3061.9877
3595.1435
3600.0714
3614.2771
4533.8349
4269.7697
4129.4589
4076.5852
3647.0913
3653.8199
3640.543
3644.262
3638.093
3639.1549
3639.2754
3639.2467
3639.2449
2005.1702
2005.1716
2005.1694
2005.1394
2005.1046
2005.0716
2005.053
2005.051
2005.0514
1557.4205
1557.4199
1557.4199
1557.4186
1557.4187
1001.9285
1003.0218
1005.1671
1008.1919
1006.5789
995.61248
977.50555
956.44195
935.37993
915.5482
898.97652
887.70118
879.91047
874.19699
870.07423
866.57367
862.9545
858.6917
853.52004
847.16491
839.0532
829.61071
827.3103
824.39083
818.24181
820.59761
817.16043
812.94429
813.75983
813.20791
813.05245
218.7071
218.75928
217.96809
216.23817
213.67644
210.53561
207.11537
203.52173
193.62725
174.32146
169.27585
160.08619
153.28767
146.41379
139.08204
131.17789
122.60609
114.10271
112.13864
102.76086
99.928929
102.13922
102.84765
100.86253
102.26662
95.327408
79.546273
63.414333
3730.9677
3720.5241
3713.624
3708.9986
3705.1837
3701.6908
3698.34
3695.1207
3692.181
3692.973
3697.0514
3700.1193
3574.2248
3575.3348
3577.4557
3578.3593
3580.0063
3580.6324
3580.501
3580.538
3580.5363
3580.54
3043.944
3044.2497
3048.4248
3052.9031
3056.6791
3058.952
3062.1105
3593.4596
3598.1323
3621.4843
3630.0305
3681.8005
3881.4668
4028.3658
4183.8936
4114.1381
4049.4975
3977.9256
3900.3477
3823.4223
3769.1941
3731.2885
3704.98
3685.6738
3668.5091
3659.6749
3653.0268
3645.111
3643.1936
3639.0382
3640.9291
3638.6616
3639.2592
2005.1715
2005.1808
2005.1455
2005.1042
2005.0635
2005.0468
2005.0507
1557.4213
1557.4199
1557.4199
1557.4182
1002.2191
1000.8933
1001.4998
999.01117
995.45908
985.69345
969.96238
950.44641
930.92302
913.94781
900.81459
891.63299
884.1767
877.5321
872.23004
867.79124
863.69063
859.46523
854.93807
849.74465
843.92349
837.70173
832.19491
828.36829
826.53204
817.74373
807.23035
828.25138
812.37024
812.85047
812.72394
218.79328
218.74231
217.19877
214.85752
211.8152
208.12269
203.70225
198.75325
170.79944
166.46245
161.70902
154.02422
146.60599
139.25361
131.49393
122.58821
114.9685
109.28968
113.29413
96.990676
94.284708
95.334671
92.72166
89.616445
81.472629
66.248511
56.414088
3717.6591
3714.7662
3711.3956
3707.7567
3704.3031
3700.7386
3697.1432
3693.7206
3690.3294
3688.1751
3688.777
3687.152
3687.1324
3563.9492
3571.1954
3571.651
3577.0598
3582.7286
3580.82
3580.6191
3037.9262
3042.3331
3049.4723
3057.6006
3060.8181
3070.2367
3572.067
3598.6087
3620.1432
3648.2341
3686.5245
3757.4911
3775.7978
3791.2185
3856.8308
3910.193
3984.2905
3988.3951
3970.1001
3927.7853
3863.3684
3808.2143
3768.1764
3736.7293
3711.36
3691.3509
3675.2479
3663.4882
3655.1821
3648.4926
3643.6702
3640.7531
3636.9345
3638.1776
3639.0539
2005.1713
2005.1897
2005.1621
2005.1001
2005.0332
2005.0462
2005.0489
1557.4186
1557.4187
1557.4164
997.46455
999.00542
1000.4957
998.96674
991.98892
981.39498
965.61021
944.99672
923.57433
907.20088
898.18191
891.70346
885.16929
878.54973
873.18652
868.539
864.29737
860.32075
856.48099
852.33524
847.5002
842.24424
836.18197
828.97902
822.77399
829.68587
817.71704
777.80399
798.59053
814.07425
218.94563
219.39789
218.88112
216.75976
214.10912
210.66803
208.37494
159.13674
153.93916
146.77344
139.57269
131.85937
121.83551
114.77297
100.90053
78.105035
92.789044
94.110448
92.069904
89.661431
85.255433
75.126655
61.103837
53.023552
3710.4029
3710.6006
3709.2172
3706.5891
3703.3616
3699.4456
3694.8837
3690.0488
3685.0127
3679.5024
3674.4274
3665.1996
3644.0658
3627.6781
3517.9161
3548.5474
3559.5902
3569.8216
3574.7659
3575.6306
3582.9561
3013.671
3031.7072
3041.1624
3050.2713
3059.5093
3065.4273
3080.7035
3550.173
3568.377
3595.079
3625.0537
3663.6332
3709.9624
3740.5248
3764.6365
3800.7613
3846.3785
3865.4605
3866.5369
3858.8632
3832.4967
3798.0257
3768.774
3744.4716
3722.3374
3703.2325
3686.893
3673.1032
3662.0384
3653.5299
3646.6817
3641.2323
3637.459
3637.0343
3639.9276
3638.9319
2005.2194
2005.1891
2005.0984
2005.0096
2005.0409
1557.3993
1557.4144
1557.4242
994.53605
1001.2913
1001.507
998.79879
991.94476
980.92286
959.6884
936.06469
911.24418
902.09466
894.19535
890.2076
883.98367
878.20674
873.29056
868.68097
864.60007
860.98689
858.03035
855.7492
851.69063
846.42664
840.31774
832.18512
818.87132
806.67119
807.51409
849.24729
830.75192
220.35889
221.64152
219.41266
217.41626
215.33003
213.058
108.01086
119.55809
80.587799
86.652965
85.890081
84.013034
79.339961
69.521773
56.275231
48.363397
3706.6155
3708.0522
3707.732
3705.6743
3702.3846
3697.6841
3691.4029
3684.1214
3676.1529
3668.0183
3659.6441
3647.7845
3627.2523
3590.3983
3570.5497
3547.575
3528.8026
3542.5994
3554.4959
3562.8248
3569.4453
3574.4851
3579.3944
3592.7722
3003.1686
3020.474
3034.7413
3047.3598
3059.3408
3072.1315
3094.1427
3467.2163
3509.2495
3541.0116
3575.774
3610.7022
3641.0309
3670.7427
3694.6583
3715.1851
3736.4688
3753.7945
3760.0567
3753.95
3744.9606
3741.1059
3731.0881
3723.4127
3711.8385
3697.6737
3684.659
3673.4076
3663.2847
3654.5777
3647.1481
3640.9441
3636.328
3633.6807
3635.7245
3636.544
2005.2825
2005.2561
2005.0532
2004.9971
1557.3947
1557.4191
1557.4516
994.53247
1004.1018
1005.009
1001.9151
997.59446
994.40214
992.16991
877.49636
891.99308
892.41038
881.36327
877.05281
872.75589
868.11391
863.4729
861.44202
858.52041
861.50196
857.71986
851.50483
845.09331
838.50565
825.11975
801.38394
805.29088
714.17208
221.94373
223.31395
222.44148
221.32398
221.93633
54.49902
81.386653
80.053349
80.295133
78.41942
73.296499
63.45639
50.543114
41.96916
3705.016
3706.7097
3706.7288
3704.7671
3701.0619
3695.391
3687.4831
3677.1907
3665.5345
3655.0029
3645.9197
3634.8407
3618.747
3596.7936
3575.3982
3557.9474
3547.4085
3548.0153
3556.1208
3562.842
3568.4574
3573.0524
3577.6612
3585.1075
3596.5076
2977.4417
2987.4737
3009.0851
3027.5549
3043.1567
3057.6987
3072.7826
3091.928
3114.1109
3443.3231
3477.2687
3512.0948
3546.4442
3579.9982
3608.2156
3630.5487
3639.7699
3610.0711
3656.7748
3656.9772
3661.9085
3649.1082
3651.1983
3656.3554
3667.1823
3675.4239
3676.228
3671.8507
3664.5351
3655.6732
3647.9308
3641.5254
3635.5946
3630.6106
3627.5272
3628.3971
3629.1037
3647.2628
2005.3801
2005.4463
2005.0329
2004.9111
1557.5515
1557.4408
1557.429
1002.1803
1010.4637
1010.132
1005.8514
1000.4917
995.70664
889.80151
876.1451
875.19413
871.62397
866.89318
864.12538
863.79957
861.60142
862.7716
866.78724
858.01743
850.27694
838.67059
816.41546
794.90988
792.26587
878.72723
225.51354
225.89143
224.4014
224.38662
66.436754
75.997703
76.149637
75.54239
73.023718
67.370153
57.491535
44.763585
35.129066
3705.0259
3706.4943
3706.6471
3704.8959
3701.0039
3694.317
3684.109
3669.3299
3654.969
3641.8983
3633.1242
3624.4947
3611.2099
3592.2193
3573.4339
3560.0855
3553.2056
3553.25
3557.2708
3561.9079
3566.0023
3568.8323
3570.2061
3567.6127
3551.8377
3544.5937
3533.9159
3526.4912
3513.8824
3492.8281
3511.4898
2883.4998
2931.4299
2955.1806
2973.8347
2997.5349
3017.8662
3034.4534
3049.0636
3061.086
3066.0604
3050.8322
3053.4561
3025.6003
3030.6376
3346.9102
3389.561
3437.8446
3477.4383
3513.144
3547.4817
3577.2887
3602.07
3613.2699
3618.4747
3576.4338
3623.7318
3624.3313
3631.0694
3638.482
3640.434
3639.8463
3635.9782
3629.9971
3624.2833
3619.3567
3615.1654
3612.2017
3612.4524
3626.2867
2005.3162
2005.2829
2005.1275
2004.7848
1575.0693
1570.1184
1565.7821
1559.5191
1558.7299
1557.9436
1557.3044
1557.3495
1016.056
1021.1814
1018.8504
1011.5519
997.5874
1000.2254
870.96114
871.7243
867.57146
854.57438
871.78372
859.27265
875.8149
750.62186
703.29738
725.59804
230.18643
230.13836
227.50171
227.02435
70.526813
72.048674
73.290135
71.969369
68.383074
62.077271
52.135723
39.501846
28.804576
3706.3316
3707.4761
3707.7696
3706.4745
3702.8917
3695.6541
3683.2166
3655.9679
3636.4252
3631.3096
3622.2378
3618.4484
3607.4055
3586.9041
3568.4571
3556.9369
3554.2126
3555.7086
3558.2151
3561.1098
3563.82
3565.4878
3565.7657
3562.6843
3555.6502
3544.2524
3530.8991
3517.9478
3503.7358
3489.005
3474.7557
3468.3042
3410.9058
2844.5568
2867.0275
2891.9558
2905.7471
2934.542
2961.1126
2984.776
3004.6557
3020.539
3035.2049
3046.4078
3051.0853
3048.2488
3035.5069
3017.0748
3000.0877
3003.6366
2983.7611
2960.94
2999.8689
3273.2021
3312.692
3359.039
3404.3033
3444.3573
3481.2163
3515.6844
3546.6418
3573.5225
3573.9585
3619.659
3612.3405
3615.6007
3616.1698
3615.3916
3613.3538
3609.676
3604.656
3599.5013
3594.5245
3589.7112
3586.4762
3588.6978
2005.3447
2005.2903
2004.1785
1607.5643
1590.656
1585.8664
1574.1754
1570.8751
1564.8731
1560.787
1558.8173
1556.994
1556.5686
1556.7631
1039.6682
1037.6821
1033.6244
1027.6507
1004.6909
652.93756
690.71622
626.46401
246.7494
240.77509
234.92472
230.05374
229.00749
82.397287
74.770783
72.74288
69.63451
64.807636
57.743925
47.609437
34.953858
23.361397
3708.4503
3709.1582
3709.4734
3708.8143
3706.5064
3701.9066
3695.5635
3679.6541
3598.4952
3610.1507
3621.2145
3613.6527
3582.004
3563.9577
3548.1037
3550.09
3555.4219
3558.7971
3560.9386
3562.6566
3563.8348
3563.2567
3560.0753
3553.6474
3542.7622
3529.5572
3514.8721
3497.8529
3477.3977
3449.067
3395.8752
3301.6556
3221.5209
3099.5963
2986.1056
2960.271
2820.7753
2825.4197
2854.579
2872.2554
2884.4645
2900.282
2923.9059
2948.9295
2970.5109
2988.4937
3003.5957
3015.7679
3025.9628
3031.7388
3031.9378
3023.7243
3011.4936
2999.2646
2987.0859
2969.3026
2959.5757
2959.0774
2972.7347
2960.8421
2958.5101
2973.4344
3001.8759
3040.0449
3083.1085
3127.7206
3172.5984
3243.7605
3285.321
3330.1192
3374.32
3414.1609
3450.4534
3483.7621
3516.8016
3550.378
3586.2112
3577.6835
3589.1354
3596.283
3597.1065
3595.5155
3592.6995
3589.0264
3583.8689
3577.4868
3570.6587
3562.5821
3553.0231
3532.5215
2005.8109
2006.039
2002.6395
2002.2949
1633.1611
1619.6143
1615.7086
1589.6834
1591.4582
1577.3781
1567.9819
1563.808
1556.9862
1554.1354
1554.1363
1556.3404
1062.5131
1055.5151
1049.9723
1021.909
606.95455
622.14451
594.67528
562.36287
278.84705
266.35118
253.93552
246.25747
237.1493
230.37837
228.83683
87.551713
78.311895
76.580493
72.810024
68.032063
62.104902
54.326851
43.987896
31.394503
19.206087
3710.7332
3710.9966
3711.4588
3711.6745
3711.088
3710.4495
3713.789
3712.3199
3522.8113
3529.9204
3539.9055
3551.2186
3557.4243
3560.5455
3562.4689
3563.3808
3562.3859
3559.169
3553.0799
3543.3538
3530.1666
3513.1826
3492.3262
3464.9634
3426.7819
3368.8752
3285.4151
3180.464
3065.2347
2962.0348
2856.0397
2801.2535
2766.3399
2728.8277
2702.8922
2691.0431
2692.0464
2702.2515
2718.0584
2738.5413
2761.3845
2780.6157
2800.0562
2830.1731
2853.8705
2872.212
2888.946
2901.5574
2918.2101
2937.8939
2955.7298
2971.2754
2985.9819
2997.2423
3005.8746
3012.3986
3015.9933
3013.0191
3003.9441
2990.8882
2974.7077
2957.0142
2946.3598
2952.0889
2955.7694
2954.3375
2970.399
2995.2887
3022.4153
3054.9216
3092.1008
3133.5831
3178.8227
3227.1004
3269.3452
3309.8225
3349.6883
3387.1056
3420.0812
3450.6535
3482.2851
3514.2463
3573.4405
3551.6606
3574.3827
3580.6595
3580.4847
3578.4262
3574.5511
3569.5349
3563.6578
3556.3154
3547.3901
3536.8673
3526.1938
3520.5662
3502.3286
2009.9552
2007.2615
2004.1689
2001.7976
1654.698
1642.321
1627.3668
1612.9396
1595.6182
1587.0113
1580.7944
1564.5541
1563.7921
1552.3428
1563.9679
1553.8283
1558.0197
1037.0268
1075.3044
1074.2875
1064.9166
581.89917
595.94375
582.363
560.83196
540.65684
320.37846
302.7103
284.93007
270.62896
256.87631
245.68553
236.36717
227.88122
225.38684
101.55053
93.250246
85.075726
78.642889
72.855958
66.852746
59.944155
51.502339
40.998105
28.683821
16.190455
3712.6251
3712.5524
3713.226
3714.2705
3715.0525
3716.1787
3717.0393
3518.2826
3529.7568
3545.9352
3554.878
3559.4127
3561.918
3562.6921
3561.8135
3559.0091
3553.564
3544.6917
3531.9033
3513.3939
3489.9564
3457.9815
3408.5335
3334.4485
3243.8412
3136.6935
3022.4661
2926.1119
2848.9922
2794.1911
2750.8759
2725.7142
2713.0026
2706.8142
2708.5835
2717.1351
2730.5165
2746.9809
2766.3876
2786.4769
2806.7988
2835.1772
2854.9839
2871.0926
2887.402
2899.7053
2912.7751
2928.1581
2942.0069
2955.2508
2969.7763
2982.9943
2990.7473
2998.3763
3004.7607
3004.3697
2996.8862
2982.5507
2962.8342
2940.5942
2921.0625
2918.1571
2934.2649
2952.162
2982.3882
3012.9265
3040.2501
3069.9324
3102.7105
3138.6517
3177.0836
3218.2917
3256.8134
3294.0452
3330.7874
3363.7915
3391.4103
3417.247
3443.6787
3474.328
3580.9658
3598.9509
3563.407
3564.011
3565.2835
3563.3185
3558.6029
3552.2927
3544.9245
3536.1349
3525.617
3512.8265
3498.3144
3481.4941
3451.7138
2020.6089
2005.3239
2005.1204
1993.2274
1725.6714
1696.9332
1671.3035
1646.38
1625.5942
1610.1047
1593.9717
1583.4017
1575.2979
1563.9164
1572.9779
1537.9974
1494.3186
1554.1728
1102.5132
1111.0995
1138.4528
565.1196
585.75175
588.34546
578.55056
559.87618
544.62618
526.04228
508.25434
480.13205
449.56775
417.23114
385.60707
356.56141
329.1284
307.03346
288.26293
272.45363
258.587
246.42332
235.63595
225.71228
220.26016
212.29917
110.76756
103.79805
103.01022
92.764041
84.978669
78.494405
72.150741
65.348025
57.664893
48.654313
37.856486
25.392903
12.699638
3713.506
3713.3713
3714.4154
3716.358
3718.4878
3721.9403
3726.8126
3525.0862
3542.3749
3551.8974
3557.1079
3560.0036
3561.142
3560.8721
3558.8822
3554.5813
3546.787
3535.0384
3515.5737
3493.1096
3456.8715
3430.3875
3354.0716
3250.8859
3108.5621
2955.5887
2831.4838
2748.9471
2777.6474
2721.6097
2708.1646
2712.9492
2718.9868
2725.7715
2734.1281
2745.6917
2760.333
2776.9585
2796.1909
2812.7996
2834.5255
2854.3317
2870.6045
2886.1816
2898.221
2908.5497
2919.8159
2931.127
2940.8019
2956.5417
2975.9875
2986.2413
3000.9376
3012.4866
3016.1401
3007.9591
2987.0285
2954.6886
2915.7279
2870.995
2883.7935
2903.1881
2951.392
2993.1477
3027.1939
3055.9475
3084.9705
3113.6631
3144.8112
3178.0485
3212.8479
3246.5689
3281.3149
3313.8488
3341.9017
3365.3704
3385.895
3395.8788
3442.7887
3544.8868
3529.6526
3552.2749
3558.2819
3556.1335
3551.5538
3544.8885
3536.9751
3527.8453
3517.1929
3505.1207
3490.7274
3474.0995
3457.2996
3447.2849
3436.7097
2366.4772
2359.0504
2334.5155
2278.7737
2225.274
2186.1964
2200.0563
2037.5435
2035.0938
2010.9365
2013.0909
1980.4108
1958.2154
1915.6947
1862.2627
1818.4734
1779.9993
1745.3798
1707.6604
1677.517
1653.3499
1632.5319
1613.8341
1597.5645
1584.8443
1571.5282
1554.428
1550.2124
1510.2762
1610.7343
1586.9535
1145.3674
1144.6061
1132.7108
1173.344
591.70882
590.85159
589.09908
579.72564
564.57053
552.34747
534.50823
508.20648
479.6759
448.25992
419.48251
386.0199
355.45174
330.39621
307.95117
289.2204
273.04737
258.69157
245.66298
233.61228
222.38196
212.40026
199.04409
105.52411
106.07428
99.787033
97.097078
90.146711
83.47894
77.053396
70.348525
63.040783
54.865249
45.423626
34.22807
21.604997
9.8969246
3712.722
3712.877
3714.2086
3716.7307
3720.2315
3726.1472
3735.4106
3510.3675
3522.4544
3538.762
3548.3452
3554.1688
3557.5733
3559.2617
3559.6649
3558.8029
3556.6771
3550.2328
3542.6129
3513.293
3523.5217
3505.0508
2689.6157
2682.615
2692.3561
2713.482
2729.7369
2743.3418
2752.36
2763.4239
2777.7383
2792.4593
2807.2303
2819.621
2837.3309
2856.3001
2872.6474
2886.7257
2895.1863
2904.6288
2912.1637
2933.1675
2929.9622
2960.4345
2850.8107
2916.0114
2970.9587
2992.9447
3029.3164
3063.7814
3093.9967
3121.6524
3149.8501
3178.009
3207.2729
3237.1048
3266.9003
3294.6318
3318.4255
3337.8643
3354.0299
3362.1385
3395.6205
3550.98
3556.0154
3553.3016
3549.9611
3546.7722
3539.6765
3531.5987
3522.4531
3512.0755
3500.1463
3486.4007
3470.4342
3451.7467
3430.1756
3405.8518
3368.3137
2382.0492
2364.9249
2346.971
2309.3135
2262.4134
2219.1135
2188.2788
2160.2154
2127.3223
2096.187
2082.9625
2068.597
2059.915
2053.0715
2019.3425
2026.9163
1995.2072
1977.5628
1951.9454
1919.5351
1874.416
1830.8081
1788.1317
1746.0379
1710.472
1680.6291
1656.2033
1633.6448
1613.9708
1596.3982
1580.5479
1565.59
1551.8414
1538.9328
1521.1242
1487.5895
1186.6714
1161.4398
1149.6432
1143.5986
595.98873
598.24963
595.47738
585.28457
570.6181
560.11726
540.95573
515.81288
482.13368
449.55807
417.48928
387.00224
356.61672
330.9852
306.53966
287.47148
272.10905
257.5111
243.87203
230.9053
218.47877
206.08776
190.50849
176.45048
161.11193
146.87055
135.21646
121.85665
113.9211
106.50116
105.43754
100.02172
93.79177
87.403354
80.959089
74.401044
67.477418
59.944642
51.610003
42.11634
31.281004
20.480894
9.4597819
3710.2779
3710.5585
3712.191
3715.2365
3720.0419
3728.2921
3740.7017
3498.8452
3509.9128
3522.5801
3535.1269
3544.7254
3551.1366
3555.0762
3557.1337
3558.2767
3559.1193
3559.9697
3550.9585
3574.5136
3536.3307
2646.0727
2671.2061
2698.8935
2728.4595
2751.5412
2767.6375
2781.5357
2795.6661
2806.3
2816.6046
2826.8626
2841.7618
2858.9009
2875.3508
2889.9758
2887.5458
2909.4315
2907.9245
2985.1807
3000.0151
3033.6215
3065.5828
3093.2171
3120.0527
3146.1256
3171.6195
3196.8358
3222.7787
3248.3601
3271.762
3291.5291
3306.9165
3317.1433
3330.4058
3547.8181
3544.5067
3540.5315
3541.304
3533.5637
3528.288
3518.9067
3508.4493
3496.9221
3484.1108
3469.3838
3452.1092
3431.8826
3406.2483
3378.0228
3352.4554
3329.6797
2391.3855
2387.9562
2419.483
2360.7044
2328.9893
2280.4042
2237.1641
2202.3338
2173.3169
2153.6696
2135.7304
2121.9057
2107.1031
2094.3336
2079.3575
2073.5544
2051.2076
2047.5495
2018.8079
1996.7303
1962.1579
1913.3491
1869.6149
1820.7474
1782.0493
1743.2805
1710.3106
1679.3766
1657.7823
1634.1426
1612.2464
1593.3647
1575.3193
1558.1362
1542.4248
1526.3641
1510.6826
1504.2173
1469.4968
1224.7224
1178.2945
1173.5012
1165.1827
1155.6044
1149.5594
625.6843
618.70558
615.28494
605.69075
594.13263
579.0025
570.17722
549.37239
527.40243
347.99136
323.29202
304.94974
288.11994
271.33962
255.73996
241.48793
227.71973
214.57135
202.24502
190.44724
175.54982
158.57115
145.68024
133.994
117.03276
110.94321
106.55437
103.73134
96.238088
89.761803
83.435139
77.066274
70.514464
63.591773
56.105217
47.89848
38.785613
28.954153
18.57096
7.2842358
3706.2698
3706.901
3708.8254
3712.0557
3717.4378
3726.1012
3738.0727
3754.7585
3480.5028
3492.2239
3506.6143
3520.2606
3532.6285
3542.4808
3549.2863
3553.209
3555.317
3557.1322
3559.5982
3561.0659
3556.7475
2656.4195
2688.6439
2722.6424
2748.5961
2770.6948
2788.6066
2803.4027
2814.9423
2824.0889
2830.5003
2842.171
2857.2896
2875.1955
2901.4188
2909.7001
3019.7843
3037.5606
3063.5127
3087.9681
3111.5339
3134.441
3157.8624
3180.9433
3203.9567
3226.0919
3245.6217
3261.5411
3273.6852
3282.4485
3295.6517
3543.9511
3541.9441
3538.4458
3530.9387
3519.2829
3507.46
3494.6738
3481.7988
3468.3698
3453.4652
3435.4916
3414.1572
3386.3766
3346.111
3277.7502
3153.6354
3003.7862
2821.1244
2637.3439
2523.8919
2452.507
2390.2178
2333.6819
2277.4996
2230.1324
2195.9145
2172.2847
2145.7328
2127.9512
2121.0257
2116.2356
2108.9652
2098.7908
2091.1438
2081.2865
2061.9792
2041.9444
2017.5818
1988.6032
1956.1507
1927.7073
1877.2084
1826.1436
1775.4873
1746.6054
1710.9719
1678.2308
1651.8243
1629.0006
1609.7293
1589.2739
1569.3021
1549.8723
1533.2243
1514.0194
1492.2766
1467.9996
1435.9744
1412.82
1368.3278
1239.769
1227.6638
1214.5466
1203.6453
1184.3463
1175.7905
1170.5412
1164.0992
1156.5026
641.60109
632.5411
629.40802
617.07391
604.48768
591.24494
585.96032
568.82973
282.18338
268.23393
254.28055
238.47453
223.73057
210.1522
197.84615
184.49198
169.01705
157.71398
143.60355
133.85372
125.68918
113.00457
103.61876
98.185984
90.970597
84.438447
78.152222
71.885668
65.47345
58.732815
51.484219
43.549945
34.781334
25.643219
15.990435
5.4426212
3700.8087
3702.3004
3704.2448
3706.5888
3709.8226
3713.7831
3717.8245
3713.9138
3673.792
3388.5157
3466.0008
3450.5965
3482.4792
3492.054
3506.7845
3520.889
3533.3156
3543.4608
3550.3176
3553.2554
3554.1593
3557.4031
3559.6909
3562.2366
2703.9308
2722.5977
2745.5471
2766.6379
2784.8437
2800.1224
2816.0182
2821.7837
2824.7479
2836.4913
2850.9028
2860.7192
2886.8677
3018.2676
3033.6424
3056.8381
3078.1057
3098.7149
3119.3512
3140.2357
3161.5585
3182.3168
3201.9709
3218.3255
3230.7488
3239.7746
3246.8982
3255.5439
3536.2251
3530.8987
3524.1116
3509.0733
3497.6136
3480.2679
3465.7609
3452.3102
3438.5598
3422.4137
3401.6946
3374.1786
3335.6899
3277.7101
3191.4838
3064.798
2918.9878
2766.3943
2617.7636
2476.571
2339.743
2269.1531
2147.2895
2136.5018
2151.4
2130.7305
2109.9395
2099.414
2098.8529
2098.6607
2098.7526
2098.4698
2095.8993
2089.7411
2075.6178
2057.9801
2043.9955
2014.3816
1987.5737
1667.6825
1648.9607
1622.2888
1604.0131
1581.7114
1562.304
1539.9627
1525.2063
1504.3974
1484.6982
1462.6853
1434.5412
1394.1769
1358.7328
1329.1413
1293.6257
1264.1321
1244.0645
1230.7685
1215.911
1206.2002
1185.4702
1179.3505
1171.7441
1165.1022
1163.4824
673.89785
657.16767
650.31563
641.6999
629.306
616.43487
608.84877
602.48351
247.82025
234.0162
223.14507
211.66212
195.39604
181.10445
166.46403
157.30495
145.76204
133.61482
115.38868
108.56784
101.23135
94.367356
85.601545
78.263727
71.729046
65.543874
59.394697
53.021362
46.194037
38.693601
30.428561
22.497895
13.966759
3.8333546
3694.9219
3697.1807
3699.0552
3700.0515
3700.148
3697.9604
3687.9464
3656.7879
3567.726
3522.3932
3483.5596
3478.4256
3483.2742
3491.2335
3499.7547
3511.8403
3524.9669
3536.6371
3547.1173
3553.2562
3554.844
3551.3099
3565.1637
3556.0606
2704.2379
2720.7957
2739.7339
2757.7346
2775.1534
2791.9983
2813.7311
2837.6392
3032.3445
3048.5051
3065.373
3083.2698
3102.1042
3121.4561
3140.9184
3160.4333
3178.3497
3192.0504
3201.1229
3206.4917
3210.3603
3210.8585
3524.1791
3506.7151
3489.2542
3462.8914
3447.2414
3435.0819
3423.5105
3410.9323
3394.9179
3372.0557
3340.2971
3294.2407
3226.5874
3129.2113
3007.6079
2807.8917
2723.2325
2520.2275
2420.539
2021.9356
2080.1805
2096.5991
2067.6022
2075.5925
2079.5861
2081.1589
2083.8644
2089.1006
2093.921
2093.4917
2085.6597
2081.0886
2060.0479
1595.9017
1571.7086
1555.9714
1527.3927
1519.0348
1493.8254
1472.5798
1447.9872
1427.5978
1392.5118
1347.2213
1315.0754
1286.3052
1264.7463
1246.7602
1224.4941
1212.6599
1201.5598
1187.0465
1179.4703
1169.6097
1161.1021
1150.7013
1149.4864
697.54915
688.6546
671.90283
665.35512
654.77848
642.39796
630.89008
625.14216
635.58169
206.49111
194.14244
181.78131
169.87083
157.39699
145.22018
130.07214
119.18804
106.94747
96.41831
85.787373
77.506962
70.197481
63.804113
57.979424
52.359898
46.603308
40.447405
33.716071
26.69451
19.594769
11.460309
2.0110755
3689.3454
3692.3073
3694.0667
3693.7391
3690.7855
3682.8496
3664.5124
3629.3155
3578.4976
3522.0361
3480.0977
3476.0193
3484.339
3492.9217
3502.4033
3514.7125
3528.0751
3540.5613
3552.7641
3554.0352
3560.1167
3546.2504
2713.6643
2715.3321
2731.1366
2745.3065
2760.4181
2775.2634
2792.4773
2815.8225
3026.9405
3034.6928
3049.0129
3065.5066
3083.3712
3101.9763
3120.782
3139.995
3157.0227
3168.718
3174.3785
3174.1056
3169.9759
3162.6868
3471.0234
3430.821
3423.2502
3414.8193
3406.7785
3398.7698
3388.8271
3373.7409
3350.7132
3316.0377
3265.3399
3201.0389
3127.2541
2994.3206
2038.343
2064.8973
2074.9512
2059.185
2061.4284
2068.4885
2075.8015
2084.6709
2091.9733
2094.1701
2105.0657
2101.1249
1557.3199
1548.69
1505.8193
1517.7457
1483.8982
1469.9066
1447.9499
1421.4767
1379.5632
1346.8359
1316.0168
1282.8103
1261.998
1232.9543
1228.951
1215.438
1197.8409
1189.4696
1175.8555
1164.5924
1153.7196
1142.06
1133.7588
1112.6889
753.46342
735.85904
720.9326
700.80849
689.74493
678.65267
667.52621
654.98476
642.73613
631.29652
607.00637
124.48438
111.79292
99.286002
86.124971
73.612595
67.011869
60.264204
54.402048
49.320244
44.562881
39.701179
34.451879
28.665971
22.821457
16.636773
9.163427
-0.040674329
3684.7519
3688.1667
3689.4536
3687.0483
3679.3283
3662.3063
3631.5818
3586.6386
3533.9714
3494.9311
3473.7466
3471.7587
3479.3319
3487.5107
3497.517
3511.0367
3527.2559
3543.6849
3565.9136
3582.8505
2709.1927
2717.9289
2730.3534
2744.1041
2757.2335
2770.8604
2789.7525
3012.5977
3017.9369
3028.9825
3045.7217
3063.7042
3082.5934
3101.9357
3122.3216
3140.0071
3150.7768
3154.5163
3149.7011
3136.5741
3130.2465
3108.0194
3399.9635
3393.1309
3389.9304
3387.338
3384.9887
3381.5414
3373.7796
3357.6441
3333.9089
3281.3816
3257.9567
3195.7806
2084.9012
2057.1223
2047.6058
2052.1605
2060.8244
2070.2112
2080.7647
2079.2623
2121.0793
1547.5781
1477.4757
1531.9195
1472.2669
1473.2493
1452.0708
1434.9022
1328.8108
1302.9164
1273.1801
1255.0654
1238.6031
1216.9644
1205.7105
1193.1401
1185.1007
1171.427
1159.0374
1146.3186
1132.0796
1117.0132
1088.876
1087.712
1048.1809
1030.4158
993.4589
963.32248
941.45091
915.60786
890.00288
864.23299
838.35854
813.39851
789.8841
765.028
739.33012
722.30902
707.71243
702.05256
690.5645
678.99086
667.05688
656.67547
650.47458
678.78466
75.510473
60.737103
53.519377
48.813963
44.047147
40.069167
36.446147
32.682167
28.58008
24.103087
19.184796
13.703469
7.13696
-2.4237548
3681.824
3685.2551
3685.5224
3680.0251
3665.3309
3636.0872
3593.5048
3536.3834
3484.06
3456.7894
3450.3639
3456.675
3466.6219
3475.0377
3485.5908
3500.055
3517.3411
3534.3569
3555.6279
2691.0385
2703.8374
2714.379
2728.0779
2739.3598
2750.4933
2764.5779
2996.5225
2996.3017
3006.385
3023.3313
3042.1395
3059.6497
3083.4293
3108.1173
3128.9098
3139.399
3141.9704
3134.2415
3122.6182
3114.1173
3082.4882
3346.1848
3357.8136
3361.4256
3365.3944
3369.9091
3373.8304
3374.7654
3360.8362
3372.5413
3321.7721
2048.4103
2023.497
2033.6909
2042.2054
2049.3014
2058.6191
2083.7309
1459.8755
1501.3609
1464.9688
1476.0385
1261.0041
1241.9503
1218.1985
1213.4653
1201.4699
1193.7716
1179.0457
1165.5787
1153.0509
1140.7227
1126.7389
1116.2496
1106.4685
1067.1872
1048.3097
1026.8188
997.08257
969.23525
941.91258
915.80893
889.91987
864.20272
838.27416
811.45319
787.16638
764.40078
744.36526
732.01393
711.26248
704.74841
699.67185
687.29736
674.58827
660.20822
645.29176
621.79633
40.767424
37.163816
37.507773
33.630421
30.883667
28.576886
25.998384
23.100359
19.80647
15.756251
11.081242
5.7356029
-5.2679434
3681.2129
3684.2723
3683.473
3675.6113
3657.5738
3625.803
3575.5309
3469.4465
3406.8103
3413.0044
3422.6113
3437.151
3449.6619
3458.0333
3466.6609
3480.1665
3495.1843
3504.8113
3517.357
3511.5423
2681.2938
2691.0813
2703.0758
2711.1791
2721.0252
2728.1112
2729.2895
2722.4635
2702.0083
2968.7181
2984.9426
2988.8752
3007.7392
3023.6656
3048.8919
3071.8322
3094.0468
3121.6633
3135.6179
3134.4235
3122.2595
3100.9627
3088.836
3059.1499
3037.0641
3017.0043
3303.5766
3318.9885
3332.423
3343.5368
3355.3348
3365.937
3371.9648
3368.7243
2028.1128
2019.5502
2021.1349
2022.4796
2021.5108
2013.018
1469.0346
1504.7361
1482.8011
1487.1999
1479.8927
1227.8197
1215.2672
1206.1734
1192.1026
1186.0975
1171.4515
1157.7763
1145.3573
1134.9994
1119.0079
1098.5828
1082.3019
1070.3553
1044.8773
1018.2201
995.44704
967.92313
940.89155
915.12673
889.86982
864.57324
839.15639
813.71767
789.2325
765.46119
743.52329
730.44531
718.77774
707.83194
700.27598
692.98719
680.09959
662.25459
645.21401
624.07879
627.98218
586.10397
31.780081
27.355977
25.376075
22.694813
21.943008
21.390184
20.249216
18.475099
15.97811
12.569085
8.7411953
5.1084501
-9.517768
3683.1619
3685.622
3684.2886
3677.1168
3665.3752
3645.1171
3616.3036
3570.9918
3210.5112
3357.7083
3390.1561
3418.6663
3436.5738
3441.5009
3444.8972
3453.1855
3465.0306
3470.9277
3472.1696
3470.9824
2649.6365
2675.37
2687.3529
2695.8063
2703.7051
2709.1052
2708.7308
2698.8446
2680.4528
2676.9741
2658.0643
2926.5301
2942.3962
2968.8506
2996.3582
3013.1429
3026.3704
3057.4967
3080.066
3047.9714
3020.0764
2996.2704
2975.6331
3276.5989
3294.0626
3304.6657
3324.9035
3344.4499
3362.5367
3370.317
2015.3591
2000.4033
1998.5775
1994.3595
1984.325
1925.5164
1481.225
1493.7462
1456.2407
1501.4507
1464.7367
1200.9487
1188.4189
1179.6761
1175.8849
1161.7979
1147.5053
1134.1967
1124.5263
1116.6918
1102.8411
1091.8376
1060.3741
1047.8399
1030.1115
707.3818
703.01062
687.37076
659.19985
641.41164
606.56957
590.51035
576.37728
572.73307
0.55656125
9.2449266
12.209315
12.708232
14.350898
15.311474
15.272211
14.518738
12.735653
9.8786603
6.6143281
4.7710782
-13.476669
3687.3559
3689.0572
3687.7257
3682.846
3673.2142
3658.2748
3648.6591
3675.7393
3382.9268
3405.998
3424.8892
3444.3393
3426.6761
3426.2357
3432.0232
3439.8757
3442.4716
3440.1966
3442.497
3395.9646
2633.9619
2653.6982
2666.1349
2675.4721
2683.5098
2688.826
2688.741
2681.0817
2668.1295
2649.8199
2624.1821
2610.2418
2575.2733
2570.6725
2843.5033
2886.1363
2897.665
2952.5737
2959.1169
2986.4908
3001.0684
2977.0565
2958.324
2939.0276
2918.7628
2905.6914
3222.5705
3244.438
3272.6072
3287.2487
3307.2016
3329.3638
2002.708
1977.76
1974.0354
1969.1144
1963.2175
1913.1459
1493.1073
1490.9997
1496.3055
1467.7278
1490.6412
1189.0661
1183.32
1169.3659
1166.8337
1153.0233
1137.0905
1127.1409
1126.6379
617.4847
577.83365
567.07479
559.74187
550.92476
528.91449
-11.544936
-4.7569253
0.50979115
4.7313268
8.2303716
10.501001
11.58488
11.592589
10.379123
7.948027
5.0250514
3.8817791
-11.548114
3693.3656
3694.4273
3693.4908
3688.8397
3679.1131
3667.2223
3655.2178
3646.8547
3411.3696
3444.2399
3398.6054
3406.3772
3420.2479
3421.2509
3410.975
3387.1725
3333.8213
3279.3027
3259.4375
3255.3399
3252.3268
3248.1702
3238.9327
3240.2212
2599.2079
2627.3203
2641.5583
2653.716
2662.0347
2665.8851
2665.603
2660.4756
2647.4892
2629.9341
2611.1945
2591.9033
2569.8953
2549.0036
2536.5449
2503.8102
2499.1047
2743.199
2795.5283
2842.2831
2873.209