/*--------------------------------*- C++ -*----------------------------------*\
  =========                 |
  \\      /  F ield         | OpenFOAM: The Open Source CFD Toolbox
   \\    /   O peration     | Website:  https://openfoam.org
    \\  /    A nd           | Version:  6
     \\/     M anipulation  |
\*---------------------------------------------------------------------------*/
FoamFile
{
    version     2.0;
    format      ascii;
    class       surfaceScalarField;
    location    "0.22";
    object      phi;
}
// * * * * * * * * * * * * * * * * * * * * * * * * * * * * * * * * * * * * * //

dimensions      [0 3 -1 0 0 0 0];

internalField   nonuniform List<scalar> 
16822
(
6.0270825e-12
1.9729175e-12
4.4892905e-12
1.537792e-12
3.6839021e-12
8.0538843e-13
3.4093973e-12
2.7450484e-13
3.433432e-12
-2.4034729e-14
3.5962562e-12
-1.6282418e-13
3.7552237e-12
-1.5896751e-13
3.741372e-12
1.3851707e-14
3.4456919e-12
2.9568013e-13
2.7646519e-12
6.8103994e-13
2.7646519e-12
1.681777e-14
-1.6817759e-14
4.8022053e-14
-3.120428e-14
3.2758295e-14
1.5263761e-14
1.5538582e-14
1.7219716e-14
2.269879e-14
-7.160206e-15
1.0772282e-14
1.192651e-14
6.9688353e-15
3.8034496e-15
1.9039166e-14
-1.2070328e-14
9.7930917e-15
9.2460758e-15
-3.7001748e-21
9.793103e-15
-1.0940793e-25
1.5365163e-15
-1.5364675e-15
-1.45284e-16
1.6818052e-15
1.8016554e-14
-1.8161836e-14
9.4516582e-15
8.5649031e-15
1.5158918e-14
-5.7072605e-15
2.0069608e-15
1.3151991e-14
2.0069936e-15
1.1073522e-14
-1.107351e-14
1.9009044e-13
-1.7901688e-13
1.9009047e-13
1.4205411e-12
-1.4205411e-12
3.6151578e-12
-2.1946167e-12
5.0426785e-12
-1.4275207e-12
5.0426785e-12
8.6428151e-13
-8.6428151e-13
7.7295564e-13
9.1325866e-14
8.0014695e-14
6.9294093e-13
2.5850859e-14
5.4163827e-14
1.0999429e-14
1.4851394e-14
1.6297589e-14
-5.2981881e-15
4.3175796e-14
-2.6878252e-14
-2.0666815e-25
4.3175583e-14
2.0653511e-19
3.1052829e-14
-3.1052081e-14
8.0441412e-14
-4.9387979e-14
8.6649234e-14
-6.2073949e-15
7.821268e-14
8.4367773e-15
4.1993486e-14
3.6219423e-14
1.9930027e-14
2.2064015e-14
-1.9978297e-25
1.9931304e-14
1.111303e-16
-1.0888835e-16
-4.8022615e-15
4.9164657e-15
7.9460119e-16
-5.5931463e-15
-4.379031e-26
8.0073187e-16
-1.7630574e-15
1.763141e-15
1.4624814e-13
-1.4801119e-13
6.3948176e-13
-4.9323365e-13
2.9109941e-12
-2.2715124e-12
4.6368547e-12
-1.7258607e-12
5.9278995e-12
-1.2910448e-12
6.9039834e-12
-9.7608395e-13
7.492455e-12
-5.8847159e-13
7.6841222e-12
-1.9166716e-13
7.3679655e-12
3.1615673e-13
6.478755e-12
8.892106e-13
5.444575e-12
1.03418e-12
4.5609325e-12
8.8364257e-13
3.9245887e-12
6.3634389e-13
3.5654392e-12
3.5914955e-13
3.4435394e-12
1.2189983e-13
3.4679885e-12
-2.4449168e-14
3.5217981e-12
-5.3809574e-14
3.5087785e-12
1.3019713e-14
3.3675929e-12
1.4118558e-13
3.0363184e-12
3.3127455e-13
2.328026e-12
7.0829236e-13
9.4834865e-13
1.3796773e-12
1.0323558e-13
8.4511306e-13
1.5948441e-14
8.7287068e-14
3.0934232e-14
-1.4985822e-14
1.1556852e-15
2.9778579e-14
6.2600403e-14
-6.1444674e-14
1.4992324e-12
-1.4366318e-12
7.64395e-13
7.348375e-13
7.6439503e-13
6.623114e-20
1.4498752e-12
-1.4498748e-12
3.0964203e-12
-1.6465451e-12
9.8330057e-13
2.11312e-12
-5.8488094e-12
6.8321097e-12
-1.5788237e-11
9.9394276e-12
-2.4359491e-11
8.5712546e-12
-1.2505957e-11
-1.1853534e-11
9.0856047e-13
-1.3414518e-11
-3.5450081e-12
4.4535679e-12
-6.6471069e-12
3.1020984e-12
-8.9712364e-12
2.3241289e-12
-7.5302738e-12
-1.4409625e-12
-6.2339404e-12
-1.296334e-12
-5.0192978e-12
-1.214642e-12
-3.3907981e-12
-1.6285002e-12
-2.0295649e-12
-1.3612324e-12
-5.3062562e-13
-1.4989387e-12
-1.5586075e-12
1.0279821e-12
2.3680592e-13
-1.7954132e-12
2.7483696e-13
-3.8031186e-14
4.3992463e-13
-1.6508787e-13
1.2641989e-12
-8.2427453e-13
3.1515024e-12
-1.8873036e-12
5.2093831e-12
-2.0578809e-12
7.5905218e-12
-2.3811388e-12
1.0653212e-11
-3.0626905e-12
-3.9680845e-12
8.3306128e-12
1.6423047e-12
8.1509753e-12
1.7174295e-12
8.0018426e-12
9.5452108e-13
8.1251378e-12
1.5120969e-13
8.4882322e-12
-3.8712918e-13
8.9754522e-12
-6.5004418e-13
9.3639618e-12
-5.4747706e-13
9.3839852e-12
-6.1717241e-15
8.68324e-12
9.964253e-13
7.0483004e-12
2.3159796e-12
5.9406108e-12
3.8723415e-12
5.9406108e-12
-1.1491379e-13
9.8096031e-14
-1.3326873e-13
-1.284934e-14
-6.9019013e-14
-4.898595e-14
1.9436197e-13
-2.4616127e-13
-1.2119904e-14
1.9932167e-13
-1.0772308e-14
1.0578925e-14
-6.968855e-15
-1.9039181e-14
-9.793103e-15
-1.5364532e-15
-8.8776382e-15
9.0229955e-15
-3.5601725e-13
3.2897778e-13
-3.9035782e-13
4.2905473e-14
-2.3834717e-13
-1.5771791e-13
2.7001785e-15
-2.2789536e-13
4.7071767e-15
-8.0737167e-14
6.9663654e-14
-4.5883259e-13
1.9907855e-13
-6.4442352e-13
3.7568141e-13
-1.1885314e-12
5.4410792e-13
-1.1885314e-12
6.011961e-12
-6.011961e-12
3.9731984e-12
2.0387625e-12
1.0773992e-11
-8.2213346e-12
1.6938975e-11
-8.3595995e-12
2.0677183e-11
-5.1657285e-12
2.5134429e-11
5.8543243e-13
2.2166279e-11
2.9681498e-12
1.8441624e-11
3.7246547e-12
1.4842615e-11
3.5990092e-12
1.1683463e-11
3.1591519e-12
9.0144794e-12
2.6689836e-12
6.9210803e-12
2.0933991e-12
5.504919e-12
1.4161613e-12
3.6221794e-12
1.0184581e-12
2.7318227e-12
9.8168261e-13
2.2843467e-12
1.1404169e-12
1.6485583e-12
6.8995213e-13
8.1729941e-14
1.5816798e-12
2.6679541e-14
4.97522e-14
-1.6935193e-14
1.6736472e-14
2.6240365e-14
1.6736164e-14
-4.7787864e-14
1.1815676e-13
-1.5080796e-13
1.2803365e-13
-1.6083737e-14
1.1552454e-13
2.0946142e-14
5.0511591e-14
1.0123256e-13
3.5530363e-15
6.9023111e-14
2.3484746e-14
-1.0679724e-16
-1.4586244e-14
1.9400565e-14
-1.3505461e-15
-1.8823803e-14
-5.477228e-16
-7.452175e-14
7.6284894e-14
2.0289274e-12
-2.2514603e-12
4.5738165e-12
-3.0381228e-12
6.4323391e-12
-4.130035e-12
8.9481824e-12
-4.241704e-12
1.1296792e-11
-3.6396547e-12
1.3234274e-11
-2.9135655e-12
1.4465339e-11
-1.8195371e-12
1.4993924e-11
-7.2025214e-13
1.471307e-11
5.970116e-13
1.3320753e-11
2.2815277e-12
1.1644562e-11
2.7103706e-12
1.0164865e-11
2.3633392e-12
9.0573967e-12
1.7438127e-12
8.4077682e-12
1.0087781e-12
8.1604477e-12
3.6922033e-13
8.1642302e-12
-2.8231613e-14
8.2056305e-12
-9.520985e-14
8.1559279e-12
6.2722331e-14
7.8905298e-12
4.0658367e-13
7.3615504e-12
8.6025397e-13
6.5014111e-12
1.5684317e-12
5.3964785e-12
2.4846099e-12
3.6759209e-12
2.5656706e-12
7.4724993e-13
3.0159581e-12
-2.4397362e-13
9.7623771e-13
1.0800745e-12
-1.2942696e-12
9.850673e-14
9.2012319e-13
-1.3228475e-12
-1.5277621e-14
-7.6439503e-13
1.7638488e-13
8.6829688e-13
-2.3181717e-12
5.3730572e-12
-6.1513053e-12
4.358404e-12
3.1277733e-12
-1.811416e-12
1.300193e-11
-8.37039e-12
1.6498401e-11
-9.4678989e-12
9.6687639e-12
1.3414518e-11
-3.473595e-11
4.4535677e-12
7.5556654e-12
7.2489344e-13
9.1549013e-12
-9.3850222e-13
2.2243282e-13
-1.4376819e-12
-7.9715408e-13
-1.4280238e-12
-1.2243005e-12
-1.5562332e-12
-1.5002907e-12
-3.3937751e-12
4.7630877e-13
-4.492017e-12
-4.0069689e-13
3.9918836e-12
-7.4559184e-12
-1.0654336e-13
2.3030138e-12
4.3918732e-13
-5.8376181e-13
1.9330026e-12
-1.6589031e-12
4.0629249e-12
-2.9541969e-12
6.5915891e-12
-4.415968e-12
1.0149822e-11
-5.6161138e-12
1.4516985e-11
-6.7483022e-12
1.9618991e-11
-8.1646966e-12
-9.4263825e-12
8.7143243e-12
9.2798037e-13
9.449102e-12
9.8265183e-13
1.0151008e-11
2.5261551e-13
1.0931413e-11
-6.2919576e-13
1.1870593e-11
-1.3263088e-12
1.2872034e-11
-1.6514851e-12
1.373473e-11
-1.4101736e-12
1.4177914e-11
-4.4935583e-13
1.3899112e-11
1.275227e-12
1.2774075e-11
3.4410175e-12
1.0606843e-11
6.0395734e-12
8.5022363e-12
8.0452172e-12
8.5022363e-12
-5.5916503e-14
5.5916506e-14
4.3228887e-13
-3.9010935e-13
5.3669718e-13
-1.1725764e-13
6.5322965e-15
4.8117893e-13
-2.099006e-13
-2.9728364e-14
-1.0578925e-14
-3.7046296e-13
3.7948596e-13
-2.1621541e-15
-3.9323019e-14
3.4981634e-13
-3.0907302e-13
2.9557423e-13
-1.034758e-13
-2.5303131e-14
9.2982007e-14
-2.0595954e-14
1.6395189e-13
-9.4288224e-14
1.0142219e-12
-6.5119149e-13
2.5590516e-12
-1.1691482e-12
4.2664762e-12
-1.1633167e-12
7.5421923e-12
-4.4642475e-12
1.4163222e-11
-6.6210296e-12
2.0303203e-11
-6.1399807e-12
2.4996351e-11
-4.6931488e-12
2.524967e-11
-6.2652832e-12
3.5473105e-11
-8.1846722e-12
3.8012306e-11
-1.0760535e-11
3.9437078e-11
-9.7843716e-12
3.9926926e-11
-5.6555768e-12
3.9325554e-11
1.1868042e-12
3.6454059e-11
5.8396454e-12
3.2195162e-11
7.9835512e-12
2.7225936e-11
8.5682356e-12
2.2235412e-11
8.1496756e-12
1.7736839e-11
7.1675565e-12
1.384192e-11
5.9883178e-12
1.0466402e-11
4.7916799e-12
7.6362066e-12
3.8486533e-12
5.3291277e-12
3.2887614e-12
3.5395993e-12
2.9299453e-12
1.7413689e-12
2.4881825e-12
8.6045879e-13
2.4625898e-12
-2.2554687e-14
9.3276567e-13
6.5609092e-14
-7.142731e-14
9.1849426e-14
-4.7787475e-14
1.4618161e-13
-3.4477608e-13
9.8447878e-14
3.1650707e-14
9.766555e-14
2.1728632e-14
4.6777043e-15
1.9422067e-13
-2.3484746e-14
9.7186319e-14
-3.1889207e-14
5.1295099e-14
5.477228e-16
-5.1253888e-14
1.0158257e-12
-9.3954077e-13
2.826273e-12
-4.0619076e-12
5.5567815e-12
-5.7686313e-12
8.157118e-12
-6.7303715e-12
1.0535338e-11
-6.6199236e-12
1.280221e-11
-5.9065268e-12
1.4515504e-11
-4.6268599e-12
1.5404671e-11
-2.7087041e-12
1.5822157e-11
-1.1377378e-12
1.5977857e-11
4.4131185e-13
1.4400697e-11
3.8586873e-12
1.3127296e-11
3.9837716e-12
1.1997002e-11
3.4936333e-12
1.1113121e-11
2.6276932e-12
1.0649475e-11
1.4724245e-12
1.0567637e-11
4.5105847e-13
1.0708969e-11
-1.6956339e-13
1.0833924e-11
-2.2016521e-13
1.0855811e-11
4.083501e-14
1.0670547e-11
5.9184776e-13
1.0328027e-11
1.2027743e-12
9.8267725e-12
2.0696863e-12
9.0987678e-12
3.2126145e-12
7.3663323e-12
4.2981061e-12
5.2289985e-12
5.1532919e-12
8.8621817e-13
5.319018e-12
-5.9341001e-12
5.5260487e-12
1.5041315e-11
-2.0055292e-11
-1.7638488e-13
1.5202422e-11
-2.3181716e-12
4.0433291e-12
-1.2512806e-11
8.2010089e-12
-1.0299063e-12
6.4597373e-12
1.4743201e-11
6.664269e-12
1.629387e-11
1.5738428e-11
5.9460511e-13
-1.8997522e-11
9.1549012e-12
9.3773341e-12
8.5801799e-12
7.3558794e-12
5.8555885e-12
6.331897e-12
5.9311993e-12
-6.3030829e-12
4.7783613e-12
2.0555423e-12
-6.0556114e-12
1.5138451e-12
-4.2064452e-14
2.966578e-12
-3.1116359e-12
5.5342527e-12
-5.5218717e-12
8.8734988e-12
-7.7552143e-12
1.297423e-11
-9.7168453e-12
1.7853137e-11
-1.162721e-11
2.3273398e-11
-1.3584957e-11
-1.5005383e-11
8.6888711e-12
2.3910929e-13
9.7890035e-12
-1.1748062e-13
1.1027968e-11
-9.8634911e-13
1.2401255e-11
-2.0024831e-12
1.3926034e-11
-2.851087e-12
1.5527729e-11
-3.2531806e-12
1.7020875e-11
-2.903319e-12
1.8137873e-11
-1.5663545e-12
1.8657975e-11
7.551252e-13
1.8385007e-11
3.7139852e-12
1.7556181e-11
6.8684002e-12
1.6143204e-11
9.458194e-12
1.4570342e-11
1.0075098e-11
1.4570342e-11
1.1438704e-12
-1.1438704e-12
1.6886552e-12
-5.4478481e-13
2.1153907e-12
-3.7081894e-13
2.0270988e-12
-3.0181745e-13
1.3401196e-12
5.6972152e-13
3.9455412e-13
1.4267444e-12
3.6482576e-13
3.7521375e-13
-3.7521374e-13
1.5186454e-12
-7.6394564e-13
2.539154e-12
-1.0598316e-12
2.9298465e-12
-6.9976557e-13
2.5090599e-12
3.1731086e-13
1.1952378e-12
1.4068041e-12
1.1746419e-12
7.3943612e-13
-8.3372434e-13
5.6392477e-12
-5.551003e-12
1.1687128e-11
-7.2170285e-12
1.9108268e-11
-8.5844568e-12
2.5960104e-11
-1.1316083e-11
3.3084447e-11
-1.3745373e-11
4.0766323e-11
-1.3821857e-11
4.8630825e-11
-1.2557651e-11
5.4118582e-11
-1.175304e-11
5.6686297e-11
-1.0752388e-11
5.5761579e-11
-9.8358165e-12
5.4036181e-11
-8.0589735e-12
5.2461513e-11
-4.080909e-12
4.9217244e-11
4.4310731e-12
4.4963966e-11
1.0092923e-11
4.0087176e-11
1.2860341e-11
3.4763535e-11
1.3891877e-11
2.9278517e-11
1.3634694e-11
2.410821e-11
1.2337863e-11
1.9334331e-11
1.0762197e-11
1.5003277e-11
9.1227334e-12
1.1186344e-11
7.6655867e-12
7.9161751e-12
6.5589303e-12
5.1601613e-12
5.6859592e-12
2.8150565e-12
4.8332872e-12
1.3242684e-12
3.9533779e-12
1.4488476e-13
2.1121493e-12
-9.1849426e-14
1.6530682e-13
4.723252e-14
-3.9200792e-13
-2.7397835e-14
1.0628128e-13
-5.3891362e-15
-2.7957632e-16
-9.7186319e-14
2.860183e-13
5.3916644e-14
-5.3914056e-14
-1.1369408e-14
1.1658587e-13
-6.2620876e-14
9.6201048e-13
-1.9015512e-12
2.9229042e-12
-6.0228013e-12
5.6285244e-12
-8.4742515e-12
8.0240343e-12
-9.1258814e-12
9.8096601e-12
-8.4055493e-12
1.1161653e-11
-7.2585199e-12
1.4906607e-11
-8.3718139e-12
1.2197903e-11
1.1060165e-11
1.0076002e-11
1.4254756e-12
1.0019057e-11
3.9156324e-12
1.052055e-11
3.4822786e-12
1.0508221e-11
3.5059621e-12
1.0410693e-11
2.7252213e-12
1.0495381e-11
1.3877366e-12
1.0757578e-11
1.8886117e-13
1.119367e-11
-6.0565526e-13
1.1420477e-11
-4.4697172e-13
1.153985e-11
-7.8538011e-14
1.1463306e-11
6.6839169e-13
1.1441749e-11
1.2243311e-12
1.1393423e-11
2.1180122e-12
1.0966926e-11
3.6391115e-12
9.5588016e-12
5.7062305e-12
6.5965251e-12
8.1155683e-12
3.272662e-12
8.6428812e-12
4.6014141e-12
4.1972965e-12
-1.5202422e-11
-2.5145595e-13
-3.2813065e-12
-9.2314992e-12
7.8706654e-12
-1.2181878e-11
6.4098682e-12
1.6203999e-11
6.9803084e-12
1.572343e-11
1.8997522e-11
-1.1422608e-11
4.7783589e-12
-1.4820272e-12
2.0477538e-13
8.5318589e-13
-2.3772775e-12
3.6021605e-12
-5.8606103e-12
6.8373956e-12
-8.7571068e-12
1.0493529e-11
-1.1411348e-11
1.466743e-11
-1.3890746e-11
1.9350453e-11
-1.6310233e-11
2.4409283e-11
-1.8643787e-11
-2.0200892e-11
8.5984126e-12
-3.5930335e-13
9.7807248e-12
-1.2997928e-12
1.1277319e-11
-2.4829433e-12
1.3019269e-11
-3.7444332e-12
1.4981891e-11
-4.8137087e-12
1.7102002e-11
-5.3732921e-12
1.9181749e-11
-4.9830653e-12
2.0933498e-11
-3.3181038e-12
2.2109564e-11
-4.2094043e-13
2.2718208e-11
3.1053414e-12
2.3159569e-11
6.4270385e-12
2.3556826e-11
9.0609378e-12
2.3255883e-11
1.0376041e-11
2.8391409e-11
9.4348156e-12
2.0599633e-11
7.7917766e-12
1.5188332e-11
5.4113004e-12
1.1743626e-11
3.4447062e-12
8.8350226e-12
1.7647332e-12
8.2126032e-12
7.7634586e-14
7.7617706e-12
8.0013674e-14
6.9085739e-12
5.5137926e-13
5.8097564e-12
1.668539e-12
4.284402e-12
2.9520989e-12
4.6492278e-12
2.644454e-12
-3.0196677e-12
4.8264151e-12
-2.9459068e-12
6.6511696e-12
-2.884586e-12
7.7640339e-12
-1.8126299e-12
7.8669419e-12
2.1440281e-13
6.7170685e-12
2.5566775e-12
7.8917104e-12
2.8114382e-12
-2.8114382e-12
7.6208186e-12
-5.6431048e-12
1.2343204e-11
-1.0273389e-11
1.8621588e-11
-1.3495412e-11
2.5920991e-11
-1.588386e-11
3.2910561e-11
-1.8305653e-11
3.9845693e-11
-2.0680505e-11
4.7147488e-11
-2.1123652e-11
5.3672056e-11
-1.9082219e-11
5.8030216e-11
-1.6111199e-11
5.839199e-11
-1.1114161e-11
5.5809895e-11
-7.253722e-12
5.284186e-11
-5.0909379e-12
5.0572351e-11
-1.8114005e-12
4.5892708e-11
9.110716e-12
4.1719727e-11
1.4265904e-11
3.7812485e-11
1.6767583e-11
3.4052197e-11
1.7652165e-11
3.0291703e-11
1.7395187e-11
2.6181761e-11
1.6447806e-11
2.1954592e-11
1.4989366e-11
1.7692085e-11
1.3385241e-11
1.3641552e-11
1.1716119e-11
9.9452414e-12
1.0255241e-11
6.6439078e-12
8.9872927e-12
3.7747124e-12
7.7024826e-12
1.56388e-12
6.1642103e-12
-1.0421709e-13
3.7802464e-12
6.108972e-14
-6.7170655e-14
-3.248368e-13
-1.0218407e-13
1.4129578e-13
3.00921e-13
-4.0338397e-13
5.8693944e-13
4.3256833e-13
-4.8647971e-13
6.2620876e-14
4.8653836e-13
5.3425318e-13
-2.4358043e-12
2.71078e-12
-8.1993281e-12
5.1791254e-12
-1.0942597e-11
6.7822529e-12
-1.0729009e-11
6.952107e-12
-8.5754035e-12
8.3718139e-12
-8.6782268e-12
1.4254756e-12
5.3411081e-12
6.3457616e-12
2.4776251e-12
7.4313238e-12
2.4203999e-12
8.0805952e-12
2.0759499e-12
8.6107457e-12
8.5758613e-13
9.071428e-12
-2.7182108e-13
9.7355517e-12
-1.269779e-12
9.8521821e-12
-5.6360212e-13
9.9782792e-12
-2.0463511e-13
9.9075996e-12
7.3907136e-13
1.0278058e-11
8.5387217e-13
1.0820807e-11
1.5752636e-12
1.1281233e-11
3.1786855e-12
1.0816568e-11
6.1708958e-12
8.1304042e-12
1.0801732e-11
2.8666244e-12
1.3906661e-11
-9.3825893e-13
8.0021801e-12
-1.1897151e-12
-9.2314991e-12
3.1504886e-13
-2.1728426e-11
-7.050902e-13
1.7224138e-11
-5.2674959e-12
2.0285836e-11
-1.6690104e-11
7.4585272e-13
-5.4107731e-13
2.6972607e-12
-4.3286851e-12
5.2975546e-12
-8.4609039e-12
8.4061209e-12
-1.1865673e-11
1.1906655e-11
-1.4911882e-11
1.5760647e-11
-1.7744738e-11
1.9926081e-11
-2.0475668e-11
2.4325143e-11
-2.3042849e-11
-2.4746397e-11
8.5121078e-12
-8.7141112e-13
9.6401936e-12
-2.4278786e-12
1.1172419e-11
-4.0151684e-12
1.3029571e-11
-5.6015856e-12
1.5171395e-11
-6.9555326e-12
1.7543822e-11
-7.7457186e-12
2.004122e-11
-7.4804641e-12
2.2148307e-11
-5.4251907e-12
2.3583242e-11
-1.8558755e-12
2.4522003e-11
2.1665803e-12
2.553531e-11
5.4137322e-12
2.6874514e-11
7.7217335e-12
2.8098347e-11
9.1522075e-12
2.7975728e-11
9.5574351e-12
2.6633455e-11
9.134049e-12
2.4135483e-11
7.909272e-12
2.1272979e-11
6.3072104e-12
1.87219e-11
4.3158128e-12
1.6275276e-11
2.5242579e-12
1.4542018e-11
1.8132719e-12
1.3148302e-11
1.9450951e-12
1.1971273e-11
2.8455683e-12
1.0692994e-11
4.2303783e-12
1.0196246e-11
5.145975e-12
1.0196246e-11
4.0874224e-12
-4.0874223e-12
6.611882e-12
-5.5441274e-12
9.8378602e-12
-6.1718849e-12
1.2461233e-11
-5.5079592e-12
1.4274522e-11
-3.6259182e-12
1.512246e-11
-6.3353586e-13
1.4578295e-11
3.1008433e-12
1.5486046e-11
6.9839588e-12
1.5486046e-11
6.7251626e-12
-9.5366007e-12
1.1943951e-11
-1.0861894e-11
1.6884468e-11
-1.5213906e-11
2.222047e-11
-1.8831413e-11
2.7843872e-11
-2.1507263e-11
3.3709577e-11
-2.4171358e-11
3.9480709e-11
-2.6451637e-11
4.5431263e-11
-2.7074206e-11
7.2430682e-11
-4.6081638e-11
5.6319484e-11
4.5205323e-11
3.7951601e-11
3.2860663e-11
2.9057737e-11
1.9915246e-12
2.8832013e-11
9.336441e-12
2.9523431e-11
1.3574486e-11
2.9319106e-11
1.6971909e-11
2.8442678e-11
1.8528593e-11
2.6886604e-11
1.8951261e-11
2.4641591e-11
1.8692818e-11
2.1769984e-11
1.7860972e-11
1.837759e-11
1.6777636e-11
1.4767725e-11
1.5325984e-11
1.1148483e-11
1.3874483e-11
7.6960679e-12
1.2439708e-11
4.5608521e-12
1.0837698e-11
2.2055721e-12
8.5194903e-12
-6.108972e-14
6.0469083e-12
-3.5958114e-13
3.4745911e-14
-2.8172895e-13
6.3444229e-14
9.4452486e-13
-1.6296363e-12
1.5314644e-12
2.4093589e-12
-2.4093571e-12
1.1719076e-12
7.5097281e-13
1.6584476e-12
5.2943122e-13
-2.9652355e-12
2.637992e-12
-1.0307889e-11
4.8183409e-12
-1.3122946e-11
5.8315865e-12
-1.1742255e-11
4.7902537e-12
-7.5340707e-12
-3.887973e-12
2.4776251e-12
4.898025e-12
5.1427044e-12
1.8312704e-12
5.6559783e-12
3.4431225e-13
5.7714724e-12
-3.8731511e-13
6.2971604e-12
-1.795467e-12
5.7359849e-12
-2.4265484e-15
5.5193903e-12
1.1959475e-14
6.2607952e-12
-2.3335378e-15
7.1146674e-12
8.6899309e-12
1.1868616e-11
1.8039512e-11
2.8841244e-11
1.9275847e-11
2.3472058e-11
1.2727154e-11
1.4550873e-11
1.1537439e-11
-1.769933e-12
-1.9958493e-11
6.0275724e-13
1.4851448e-11
2.0532743e-12
1.8835319e-11
-1.463683e-11
1.5885304e-12
-2.1296071e-12
4.1774608e-12
-6.917615e-12
6.8393268e-12
-1.112277e-11
9.793611e-12
-1.4819957e-11
1.2983236e-11
-1.8101508e-11
1.6379018e-11
-2.1140521e-11
1.9943902e-11
-2.4040552e-11
2.362649e-11
-2.6725437e-11
-2.8545926e-11
8.4206508e-12
-1.2920619e-12
9.3731801e-12
-3.380408e-12
1.0749438e-11
-5.3914262e-12
1.2478264e-11
-7.3304118e-12
1.4533048e-11
-9.0103166e-12
1.6875231e-11
-1.0087902e-11
1.936988e-11
-9.9751131e-12
2.1148867e-11
-7.2041771e-12
2.2322504e-11
-3.0295124e-12
2.3043608e-11
1.4454762e-12
2.4157336e-11
4.3000041e-12
2.596681e-11
5.9122591e-12
2.8155651e-11
6.9633668e-12
2.9587711e-11
8.1253751e-12
2.9543195e-11
9.1785653e-12
2.8317154e-11
9.1353131e-12
2.6403383e-11
8.2209808e-12
2.4083176e-11
6.63602e-12
2.177907e-11
4.8283643e-12
1.9958677e-11
3.6336642e-12
1.8727433e-11
3.1763388e-12
1.8098012e-11
3.4749898e-12
1.8108398e-11
4.2199928e-12
1.8421633e-11
4.8327392e-12
2.3623447e-11
4.9944324e-12
1.9677614e-11
3.9458331e-12
1.6901313e-11
2.7763015e-12
1.4447358e-11
2.4539547e-12
1.2000417e-11
2.4469406e-12
9.5396843e-12
2.460733e-12
9.5396843e-12
-6.6439776e-13
6.6439778e-13
4.6735235e-12
-5.3379213e-12
8.8522606e-12
-8.2661595e-12
1.3237015e-11
-9.9288816e-12
1.6877003e-11
-9.8118735e-12
1.9785927e-11
-8.4168825e-12
2.1960153e-11
-5.8001445e-12
2.3591275e-11
-2.2646577e-12
2.4924469e-11
1.7676496e-12
2.6143141e-11
5.7652862e-12
3.2538467e-11
9.0907206e-12
2.2733712e-11
9.8047547e-12
1.454369e-11
8.1900217e-12
1.454369e-11
8.501045e-12
-8.501045e-12
1.0533249e-11
-1.1568805e-11
1.5332628e-11
-1.5661272e-11
1.9527747e-11
-1.9409025e-11
2.3306067e-11
-2.2609733e-11
2.6873328e-11
-2.5074524e-11
2.9878605e-11
-2.7176634e-11
3.1173232e-11
-2.7746264e-11
4.6081638e-11
-4.1982613e-11
1.9915246e-12
1.1327966e-11
1.2305794e-11
1.2596657e-11
1.6832779e-11
1.2444924e-11
1.9761903e-11
1.559947e-11
2.089616e-11
1.7817004e-11
2.0626171e-11
1.8962807e-11
1.9323623e-11
1.9163521e-11
1.7356303e-11
1.8744955e-11
1.4692772e-11
1.7989515e-11
1.1560776e-11
1.700648e-11
8.1881019e-12
1.5812382e-11
4.7425498e-12
1.428325e-11
1.4223682e-12
1.1839672e-11
7.4692765e-12
3.474625e-14
1.0232248e-12
-9.2503122e-13
2.2812448e-12
-2.8876558e-12
3.8127103e-12
-2.7843271e-14
2.7845746e-14
-4.7253659e-13
4.4469569e-13
-2.5818055e-12
2.1092707e-12
3.9101155e-12
-6.4919195e-12
7.8606314e-12
-3.9505138e-12
4.2202841e-12
1.2309912e-12
1.3418198e-12
3.6294388e-12
3.0002689e-12
6.6126429e-13
-3.6264997e-12
2.5916146e-12
-1.2238239e-11
4.3694236e-12
-1.4900755e-11
4.8112368e-12
-1.2184068e-11
3.887973e-12
-6.6108067e-12
1.8312704e-12
2.1755827e-12
1.7882676e-12
-7.1993843e-15
-9.6259324e-15
2.3335378e-15
2.3472058e-11
1.0577513e-11
2.744542e-11
2.2114951e-11
2.0302611e-12
-2.1988754e-11
8.5464144e-12
8.3352947e-12
9.4617192e-12
1.7920014e-11
-5.1751103e-12
2.8266782e-12
-4.9562848e-12
5.5034854e-12
-9.5944219e-12
8.1546465e-12
-1.3773931e-11
1.0842222e-11
-1.7507533e-11
1.3641217e-11
-2.0900503e-11
1.6561083e-11
-2.4060387e-11
1.9561881e-11
-2.7041351e-11
2.258333e-11
-2.9746886e-11
-3.1617007e-11
8.2957164e-12
-1.5877783e-12
8.9667893e-12
-4.0514809e-12
9.9517638e-12
-6.3764006e-12
1.1207318e-11
-8.5859661e-12
1.2731072e-11
-1.0534071e-11
1.4498085e-11
-1.1854915e-11
1.632143e-11
-1.1798458e-11
2.443822e-11
-1.5320967e-11
2.1408708e-11
1.7287555e-11
5.5666286e-12
1.8515495e-11
3.0720649e-12
2.106432e-11
3.3634342e-12
2.415669e-11
3.8709969e-12
2.6524989e-11
5.7570755e-12
2.7520271e-11
8.1832829e-12
2.7083249e-11
9.5723351e-12
2.6192252e-11
9.1119778e-12
2.4980551e-11
7.8477218e-12
2.3686115e-11
6.1228004e-12
2.267039e-11
4.6493892e-12
2.2181541e-11
3.6651873e-12
2.2309738e-11
3.3467928e-12
2.309872e-11
3.4310112e-12
2.4377439e-11
3.5540196e-12
2.585774e-11
3.5141321e-12
2.6993561e-11
2.810012e-12
2.7797543e-11
1.9723197e-12
2.863449e-11
1.6170073e-12
2.9264061e-11
1.8173691e-12
2.8888598e-11
2.8361967e-12
3.2416859e-11
6.0114232e-12
2.2370823e-11
1.0046036e-11
2.2370823e-11
8.5755168e-12
-8.5755168e-12
9.5107174e-12
-9.3520063e-13
1.1282601e-11
-1.1074858e-12
1.5461102e-11
-9.5164227e-12
1.9528506e-11
-1.2333563e-11
2.2705381e-11
-1.3105756e-11
2.5323477e-11
-1.242997e-11
2.7520126e-11
-1.0613531e-11
2.9254746e-11
-7.5347643e-12
3.0944341e-11
-3.954253e-12
3.2854951e-11
-1.4296075e-13
3.4950679e-11
3.6695586e-12
3.6970527e-11
7.0708723e-12
3.7802987e-11
8.9722947e-12
3.648239e-11
9.510619e-12
4.1375154e-11
9.6509257e-12
3.1633671e-11
9.7414832e-12
2.3144143e-11
8.4895283e-12
1.6244046e-11
6.9000967e-12
1.6244046e-11
1.0237465e-11
-1.0237465e-11
1.2367194e-11
-1.0630774e-11
1.5774679e-11
-1.497629e-11
1.87535e-11
-1.8640093e-11
2.121902e-11
-2.1874545e-11
2.3206846e-11
-2.459756e-11
2.4402948e-11
-2.6270626e-11
2.3688673e-11
-2.6462359e-11
2.0688122e-11
-2.4745713e-11
-2.1294491e-11
5.2320734e-12
7.3645838e-12
9.0642618e-12
8.6127352e-12
1.2357156e-11
1.2306576e-11
1.4812486e-11
1.5361673e-11
1.6150237e-11
1.7625056e-11
1.6315931e-11
1.8997827e-11
1.5577269e-11
1.9483617e-11
1.3961236e-11
1.9605548e-11
1.1652993e-11
1.9314722e-11
8.8268937e-12
1.8638481e-11
5.716169e-12
1.7393975e-11
2.6071861e-12
1.4948655e-11
1.0076463e-11
-1.6641516e-12
7.3911987e-13
2.0228284e-12
-6.5746342e-12
5.8355391e-12
-1.8996731e-12
1.8996739e-12
-6.6995905e-13
-1.2297138e-12
-1.223805e-12
5.5384622e-13
1.122953e-12
-2.3189121e-12
1.8110008e-12
-2.4335165e-13
2.6191382e-12
1.3011339e-12
-2.634061e-12
-1.2387197e-12
-1.9835731e-12
-4.6010008e-12
-1.1784888e-12
4.2590884e-13
-3.0002689e-12
5.4512238e-12
7.8751225e-13
-4.4140119e-12
2.2570707e-12
-1.3707797e-11
3.4851355e-12
-1.6128819e-11
6.6108067e-12
-1.5309739e-11
8.1696136e-12
1.9275946e-11
1.0379478e-11
1.9905089e-11
1.0379478e-11
3.7183325e-11
-3.7183325e-11
2.6815638e-11
-1.1621067e-11
2.5279997e-11
9.8709355e-12
2.0595609e-11
2.2604403e-11
1.5420499e-11
4.7236976e-12
-9.679982e-12
6.9314343e-12
-1.1802158e-11
9.1967659e-12
-1.6039262e-11
1.1496967e-11
-1.9807735e-11
1.3888507e-11
-2.3292043e-11
1.6364124e-11
-2.6536005e-11
1.8870442e-11
-2.954767e-11
2.1328651e-11
-3.2205095e-11
-3.4032879e-11
8.1430277e-12
-1.730806e-12
8.4686269e-12
-4.37708e-12
8.9171444e-12
-6.8249181e-12
9.4225729e-12
-9.0913946e-12
9.8538895e-12
-1.0965387e-11
9.9305134e-12
-1.1931538e-11
9.1673568e-12
-1.1035302e-11
-6.1536106e-12
5.5666286e-12
8.6386935e-12
1.2002128e-11
1.5873125e-11
2.16302e-11
2.0707885e-11
9.1055983e-12
2.1746856e-11
8.5333637e-12
2.2122801e-11
8.7360332e-12
2.2270317e-11
7.700206e-12
2.2324799e-11
6.0683182e-12
2.2537806e-11
4.4363818e-12
2.3051633e-11
3.1513601e-12
2.3999888e-11
2.3985381e-12
2.5523655e-11
1.9072441e-12
2.7548643e-11
1.5290313e-12
2.9995504e-11
1.0672711e-12
3.2467291e-11
3.3822547e-13
3.4909373e-11
-4.6976198e-13
3.7397082e-11
-8.7070214e-13
3.9964068e-11
-7.496172e-13
4.2626094e-11
1.741709e-13
4.5871734e-11
2.7657835e-12
4.9304705e-11
6.613065e-12
6.119861e-11
1.0476918e-11
4.8503577e-11
1.2695034e-11
3.6398877e-11
1.21047e-11
2.5233831e-11
1.1165045e-11
2.5233831e-11
1.3081151e-11
-1.3081151e-11
1.6848638e-11
-3.7674871e-12
1.5936493e-11
-7.6633715e-12
2.1200192e-11
-6.1988996e-12
2.664325e-11
-6.5505444e-12
2.818315e-11
-1.1056322e-11
2.9717075e-11
-1.3867489e-11
3.0942822e-11
-1.4331503e-11
3.2011352e-11
-1.34985e-11
3.3058698e-11
-1.1660877e-11
3.4169461e-11
-8.645528e-12
3.5362646e-11
-5.1474376e-12
3.7141676e-11
-1.9219908e-12
3.9439392e-11
1.3718425e-12
4.2328697e-11
4.1815674e-12
4.5112274e-11
6.1887172e-12
4.7175765e-11
7.4471285e-12
4.831286e-11
8.513831e-12
4.8616596e-11
9.4377468e-12
4.7355714e-11
9.7504106e-12
4.4418456e-11
9.8373543e-12
5.0090213e-11
1.0572289e-11
3.7568835e-11
1.2521378e-11
2.5790963e-11
1.1777872e-11
1.7090907e-11
8.7000557e-12
1.1685789e-11
5.405118e-12
8.7723361e-12
2.9134529e-12
7.6665518e-12
1.1057843e-12
8.3042664e-12
-6.3771456e-13
1.1360841e-11
-3.0565747e-12
1.7658894e-11
-6.2980534e-12
1.6268437e-11
-8.8470076e-12
1.8508118e-11
-1.2870455e-11
2.0047416e-11
-1.6515588e-11
2.1199375e-11
-1.9792052e-11
2.2092935e-11
-2.2768104e-11
2.2411343e-11
-2.4915968e-11
2.1350206e-11
-2.5209489e-11
1.8119838e-11
-2.3231991e-11
1.156912e-11
-1.8194995e-11
-9.7253715e-12
5.1502187e-12
2.2143651e-12
6.0675726e-12
7.6953814e-12
8.0148476e-12
1.0359301e-11
1.0222139e-11
1.3154382e-11
1.212173e-11
1.5725466e-11
1.3256444e-11
1.7863113e-11
1.3404368e-11
1.9335693e-11
1.2821063e-11
2.0188853e-11
1.1603478e-11
2.0532307e-11
9.7912665e-12
2.0450693e-11
7.5934985e-12
1.9591743e-11
5.4673662e-12
1.7074787e-11
1.5543829e-11
-1.0881371e-11
1.1620493e-11
-1.1999858e-11
-5.4561472e-12
-3.6881415e-12
-2.4761767e-12
-3.6881417e-12
-1.0164842e-13
1.0164864e-13
-1.3880995e-14
-8.776737e-14
2.3375845e-12
-4.5179152e-13
1.2639067e-12
-1.5603597e-13
8.3990177e-13
9.7785124e-13
-2.4481771e-12
9.6916688e-13
-5.2648466e-13
-2.1650439e-12
1.4056981e-12
-6.3104866e-13
3.3159743e-12
-3.1489954e-12
-2.0651888e-13
-1.0785068e-12
-6.3006222e-12
6.5200148e-12
-8.4939581e-13
3.1164006e-13
-4.725652e-12
1.2481584e-12
-1.4644316e-11
2.81918e-12
-1.7699841e-11
-1.2490559e-11
4.8514461e-12
1.4424501e-11
7.015899e-12
1.7740636e-11
5.0500703e-12
1.2345307e-11
5.0500703e-12
3.0180973e-11
-3.0180974e-11
6.378752e-11
-3.3606546e-11
4.6154809e-11
-1.9550614e-11
3.6609249e-11
-2.0755072e-12
3.2321919e-11
1.4158266e-11
2.7013003e-11
2.791332e-11
4.2433502e-11
5.9152027e-12
-5.9152027e-12
5.6865287e-12
-9.4513077e-12
7.785439e-12
-1.3901068e-11
9.7075449e-12
-1.7961368e-11
1.168327e-11
-2.178346e-11
1.3734951e-11
-2.5343724e-11
1.583571e-11
-2.8636765e-11
1.792288e-11
-3.163484e-11
1.9920348e-11
-3.4202563e-11
-3.5922451e-11
7.9922706e-12
-1.7230766e-12
7.94998e-12
-4.3347894e-12
7.8488997e-12
-6.7238378e-12
7.603574e-12
-8.8460689e-12
7.018713e-12
-1.0380526e-11
5.7079485e-12
-1.0620774e-11
6.1536106e-12
-1.1480964e-11
9.1055983e-12
1.2158143e-11
5.4808191e-12
1.491312e-11
5.9810562e-12
1.7054428e-11
5.5588982e-12
1.8804183e-11
4.3185633e-12
2.0341826e-11
2.8987385e-12
2.18891e-11
1.604086e-12
2.3695179e-11
5.9245914e-13
2.5820855e-11
-2.1843216e-13
2.8316896e-11
-9.6700899e-13
3.1149504e-11
-1.7653371e-12
3.4174133e-11
-2.6864042e-12
3.735776e-11
-3.6533881e-12
4.0661958e-11
-4.1749001e-12
4.4321112e-11
-4.4087714e-12
4.8531257e-11
-4.0359743e-12
5.360414e-11
-2.3070996e-12
5.9313746e-11
9.0345934e-13
6.4869267e-11
4.9213965e-12
6.874234e-11
8.82196e-12
6.8524216e-11
1.2322824e-11
6.4694642e-11
1.4994619e-11
7.2336119e-11
1.7592355e-11
5.4743716e-11
1.7592403e-11
3.8839439e-11
1.5904277e-11
2.6039595e-11
1.2799844e-11
1.6880114e-11
9.1594815e-12
1.1073484e-11
5.8066293e-12
7.9150657e-12
3.1584185e-12
6.6701725e-12
1.2448932e-12
6.9452486e-12
-2.7507614e-13
8.6776092e-12
-1.7323606e-12
1.2039394e-11
-3.3617851e-12
1.7732342e-11
-5.6929481e-12
1.6640378e-11
-1.1989186e-11
2.2023773e-11
-9.1508827e-12
2.4493816e-11
-1.0133414e-11
2.8454629e-11
-1.0159714e-11
3.243977e-11
-1.0535685e-11
3.4197937e-11
-1.2814489e-11
3.4849707e-11
-1.4519258e-11
3.5038668e-11
-1.4520464e-11
3.5039992e-11
-1.3499824e-11
3.4955289e-11
-1.1576173e-11
3.5305718e-11
-8.9959568e-12
3.5887695e-11
-5.7294146e-12
3.6871502e-11
-2.9057981e-12
3.8622625e-11
-3.7928044e-13
4.1276711e-11
1.5274811e-12
4.4460405e-11
3.0050235e-12
4.7766685e-11
4.1408484e-12
5.0971964e-11
5.3085521e-12
5.3737824e-11
6.6718869e-12
5.5625753e-11
7.8624812e-12
5.6628707e-11
8.8344009e-12
5.7460616e-11
9.74038e-12
5.4864111e-11
1.5117883e-11
4.9757652e-11
1.6884332e-11
4.2704719e-11
1.5752988e-11
3.5814612e-11
1.2295225e-11
3.0293256e-11
8.4348097e-12
2.6597608e-11
4.8014315e-12
2.4550418e-11
1.4094762e-12
2.3569352e-11
-2.0755095e-12
2.314995e-11
-5.878651e-12
2.3469298e-11
-9.1663561e-12
2.341887e-11
-1.2820027e-11
2.2975299e-11
-1.6072017e-11
2.2599282e-11