/*--------------------------------*- C++ -*----------------------------------*\
  =========                 |
  \\      /  F ield         | OpenFOAM: The Open Source CFD Toolbox
   \\    /   O peration     | Website:  https://openfoam.org
    \\  /    A nd           | Version:  6
     \\/     M anipulation  |
\*---------------------------------------------------------------------------*/
FoamFile
{
    version     2.0;
    format      ascii;
    class       volVectorField;
    location    "0.22";
    object      U;
}
// * * * * * * * * * * * * * * * * * * * * * * * * * * * * * * * * * * * * * //

dimensions      [0 1 -1 0 0 0 0];

internalField   nonuniform List<vector> 
9137
(
(0.074342791 0.015965511 0)
(0.065463722 0.012362582 0)
(0.050516429 0.0064271484 0)
(0.043411992 0.0024751126 0)
(0.042277647 0.00033726635 0)
(0.043824053 -0.00059917848 0)
(0.04622284 -0.00074516058 0)
(0.047431458 -0.00020588901 0)
(0.04524952 0.0008942029 0)
(0.03939797 0.0024456782 0)
(0.030260267 0.0043415848 -8.7766368e-33)
(-0.0005394395 -0.0018675343 8.620257e-34)
(0.00093917754 -0.0013163981 0)
(0.00044362304 0.0019127171 0)
(0.00020216139 0.0036747653 0)
(0.00035796628 2.7111037e-05 0)
(5.2463908e-05 0.00043552357 0)
(0.00018169297 0.00015235623 0)
(6.772724e-05 -3.7791457e-05 0)
(0.0002710875 8.3119015e-05 0)
(3.2313735e-05 9.9446802e-05 -1.8905203e-34)
(2.779685e-07 3.332072e-05 -5.4382515e-34)
(-7.8379622e-07 5.1442214e-06 4.5154871e-36)
(0.00010450711 0.0015715742 5.2010425e-33)
(-0.00011188196 0.0015493348 0)
(0.0001475478 -0.0026122947 0)
(0.00013144905 -0.00093323692 0)
(0.00012340914 0.00070915183 0)
(0.00010812587 0.0019033899 0)
(7.8638091e-05 0.00016159317 2.3570646e-34)
(-0.00077700593 -0.0031976034 -5.3941382e-34)
(0.001178117 -0.0038372159 0)
(0.0022771413 1.7612532e-05 -5.2839722e-32)
(0.0094870919 0.0015546905 9.9350798e-32)
(0.036218063 -0.0068180667 1.7180414e-32)
(0.057817228 -0.0049726646 -1.5523509e-32)
(0.099739307 0.0064544967 -2.3929662e-31)
(0.017538356 -0.00074048834 -5.0134859e-32)
(0.011746289 3.8810078e-05 6.5806644e-34)
(0.0076552019 0.0059162595 -8.0625757e-33)
(-0.0022887697 -0.00073541267 6.6457154e-34)
(0.0020468562 -0.005468003 -3.925874e-32)
(-0.001530502 0.00051625288 4.5012234e-32)
(0.0014191516 -0.0021123266 -1.774415e-32)
(6.9700722e-06 0.00024619684 -5.9369256e-33)
(2.6447282e-05 4.0875583e-05 -7.2295466e-34)
(-4.000229e-06 -5.1512799e-05 1.3337823e-33)
(0.00010174313 -0.00021902672 -2.17595e-34)
(0.00069985723 -0.00027558391 0)
(0.0011403629 1.3572375e-06 0)
(0.0010575068 6.4244277e-05 0)
(0.00081470757 0.00019092952 0)
(0.0003701081 0.00012168829 0)
(7.5250279e-05 0.00013881419 -5.8809608e-34)
(6.4779762e-06 3.0770791e-05 9.9033724e-34)
(7.6195924e-06 -1.0031982e-05 2.093754e-34)
(-3.361559e-05 2.302881e-05 0)
(-2.8749015e-05 -2.4459845e-05 0)
(1.5567089e-05 1.5569466e-05 -5.7017679e-35)
(6.5209277e-07 4.1715759e-06 -1.0774941e-34)
(-0.002314457 -0.0033325654 4.2353038e-33)
(0.0019696981 0.0071949735 0)
(0.00030793704 0.0026732451 0)
(0.020117434 -0.016910316 0)
(0.048443346 -0.011717898 0)
(0.0661581 -0.0066145107 0)
(0.080673005 -0.0042934569 0)
(0.090911527 -0.0022801435 0)
(0.09602824 -0.00022921458 0)
(0.095008538 0.0022761773 0)
(0.087563102 0.0050596465 0)
(0.074771469 0.0055688666 0)
(0.062007719 0.0045266416 0)
(0.052421572 0.0031321902 0)
(0.046234123 0.0016329123 0)
(0.04328613 0.000407213 0)
(0.042999729 -0.00028929255 0)
(0.043678331 -0.0004154945 0)
(0.044255346 -0.00010879575 0)
(0.043357 0.00063915624 0)
(0.040174049 0.0018499979 0)
(0.034139428 0.0049130509 0)
(0.021355255 0.010375085 0)
(0.0055137223 0.0027059406 0)
(-0.0019964976 -0.012097052 0)
(0.0026814518 0.0028628783 0)
(-0.0037142595 0.021320619 0)
(0.0018045401 -0.1259009 0)
(0.0065126965 -0.017835957 0)
(0.017207614 0.004622622 0)
(0.0067893065 0.008409218 3.7869519e-32)
(0.00027026191 -0.0025329893 -8.3264819e-32)
(0.0065408791 -0.010004488 1.7650466e-31)
(0.030490587 -0.0083982076 0)
(0.035642496 0.017433441 0)
(-0.021602971 0.048448855 0)
(-0.14286926 0.071642951 0)
(-0.2756029 0.063629797 0)
(-0.234036 -0.083713755 0)
(-0.015118486 -0.11143802 3.743906e-30)
(0.00061035947 0.028063066 -1.3329865e-31)
(-0.067696273 0.020311912 0)
(-0.10457512 0.0032394897 0)
(-0.1050523 -0.024011796 0)
(-0.084991376 -0.014888763 0)
(-0.071607833 -0.012397492 0)
(-0.053140872 -0.016188911 0)
(-0.032317036 -0.0145408 0)
(-0.0090116149 -0.0050933446 0)
(-0.015298406 0.076976908 0)
(-0.0063049567 -0.085092691 0)
(0.0081129463 0.0024716176 0)
(0.0010554131 0.0046588547 0)
(0.0085738738 -0.0028854426 0)
(0.026199771 -0.013319178 0)
(0.052310434 -0.013155779 0)
(0.076805874 -0.013074525 0)
(0.10930947 -0.017056147 0)
(0.1797685 -0.023656152 0)
(0.10031172 0.02691586 0)
(0.10367005 0.024237443 0)
(0.10067781 0.013975988 0)
(0.1000192 0.0045171417 0)
(0.10328531 -0.0010208717 0)
(0.10909723 -0.0037387312 0)
(0.11533513 -0.0032911288 0)
(0.11857048 0.00071780351 0)
(0.11458527 0.0075730652 0)
(0.10240393 0.017125391 0)
(0.069625468 0.025559196 -1.0225006e-32)
(0.03484976 0.024394697 -1.5590364e-32)
(-0.0024942833 0.001709572 -4.7990255e-32)
(-0.00074400844 0.0010085726 0)
(-0.0019597137 -0.0019182777 0)
(0.00046658391 -0.0040744289 0)
(0.0027712047 3.0699362e-05 0)
(-0.0023520237 -0.00041576501 -3.6637018e-33)
(0.00085953307 -0.00015480796 2.4588638e-32)
(-0.00053290107 -0.00017120143 -1.3263911e-32)
(-0.0001334133 9.146461e-05 2.6750033e-34)
(-9.7448806e-05 6.535225e-05 1.6604994e-33)
(0.00066799947 -0.0023059343 -5.0320925e-32)
(0.001410793 -0.0024471531 -1.9848565e-32)
(-0.0018894378 0.0026352244 0)
(-0.0055567695 0.0013485373 0)
(-0.0039110597 -0.00096621648 0)
(-0.0014617743 -0.0018822332 0)
(0.0015916529 -0.00011900891 1.6552112e-33)
(0.0017836896 0.0036667677 -6.4748117e-33)
(-0.0046432894 -0.00018324847 0)
(-0.003003715 0.005300455 -3.4010666e-32)
(-0.014867624 0.0065380449 -2.0967372e-31)
(-0.0074621726 -0.011317311 -2.1838323e-31)
(0.1098017 0.0032583414 1.8593321e-31)
(0.03910115 0.07584512 4.1665817e-31)
(0.065369341 -0.038365569 4.2916933e-31)
(0.17972526 -0.062450903 0)
(0.24574254 -0.039157758 0)
(0.266258 0.026898698 2.4748641e-32)
(0.23841866 0.028941216 -2.3411169e-32)
(0.20997487 0.025662227 -8.25522e-32)
(0.17153873 0.019710231 -3.6421822e-33)
(0.13325741 0.014076686 9.8130711e-34)
(0.10116205 0.010035177 1.3740193e-34)
(0.078280876 0.006682158 6.9862606e-34)
(0.06118448 0.0022835128 1.0006643e-33)
(0.051752496 -0.003694187 -1.1470264e-33)
(0.039661178 0.0028349789 0)
(0.030996302 0.0095582157 0)
(0.026001281 0.0026575052 0)
(0.0094844918 0.0096146643 0)
(-0.0055527885 -0.0017448131 0)
(0.0045498276 0.0019787413 0)
(-0.0027988529 0.00088404504 -4.7185389e-32)
(-0.00011413611 -0.00041794208 -4.6151099e-33)
(0.00077360925 -0.0011700006 0)
(0.0017474298 -0.000180838 0)
(0.0015992589 0.00016529503 0)
(0.0011190892 0.00085221671 0)
(0.00025065227 0.00058397996 0)
(-9.5287652e-05 0.00023735419 5.2446657e-33)
(-3.1864548e-06 3.0983681e-05 2.2884256e-33)
(-0.00011545571 0.00015272577 5.4907921e-33)
(-0.00010533026 -0.00011726193 0)
(1.8250408e-05 2.3738518e-05 -3.7607946e-34)
(-0.009632292 0.0051508436 -4.0025805e-33)
(0.0098800421 -0.01292064 0)
(0.039942359 -0.018261616 0)
(0.068505641 -0.037356292 0)
(0.096756337 -0.034796983 0)
(0.12702405 -0.028740641 0)
(0.15484177 -0.022473084 0)
(0.17493992 -0.013954811 0)
(0.18616663 -0.0051391018 0)
(0.18791917 0.0061382261 0)
(0.1772643 0.019103904 0)
(0.15644303 0.022501079 0)
(0.13529381 0.01956288 0)
(0.11895365 0.014224543 0)
(0.10796338 0.0081739145 0)
(0.10262385 0.0029693524 0)
(0.10162103 -0.00023857632 0)
(0.10238369 -0.00084864341 0)
(0.10268205 0.00052501529 0)
(0.10091448 0.0032922226 0)
(0.096072331 0.0073432548 0)
(0.087784829 0.014265749 0)
(0.075431445 0.023858186 0)
(0.058342132 0.020306596 0)
(0.027318056 0.016473781 0)
(-0.0041470688 -0.00461312 0)
(0.00093760837 -0.031750123 0)
(0.011895343 0.18955544 0)
(0.0031262321 -0.043943415 0)
(-0.028132619 -0.0033782744 8.3442615e-32)
(-0.0038857287 0.0058650068 1.8771133e-31)
(-0.0023125309 -0.020274071 4.7888796e-31)
(0.036117492 -0.045091593 0)
(0.074439947 0.042242794 0)
(0.026839561 0.13604127 0)
(-0.080489501 0.18151351 0)
(-0.14335305 0.12189321 0)
(0.053838345 -0.31900429 2.7475999e-30)
(0.079865111 -0.15325293 7.6900828e-30)
(0.045352632 0.046540419 -6.6390641e-31)
(0.072336288 0.054280955 -6.4076658e-32)
(0.040303937 0.080227749 -1.3218167e-32)
(-0.010817245 -0.0027893392 0)
(-0.01571061 -0.014880443 0)
(-0.018020531 -0.020200308 0)
(-0.016116714 -0.026523002 0)
(-0.016977037 -0.01111 0)
(-0.10227321 -0.024023792 0)
(0.044490305 -0.08078934 0)
(0.012754835 0.072670314 0)
(-0.0076244663 -0.0062683509 0)
(0.015040737 -0.01058388 0)
(0.035337197 -0.02069271 0)
(0.064262083 -0.03566186 0)
(0.10285097 -0.042772355 0)
(0.15005088 -0.051673899 0)
(0.20818798 -0.065272003 0)
(0.31068867 -0.079966962 0)
(0.10414753 0.016725148 0)
(0.11385819 0.018719658 0)
(0.1222083 0.0095094586 0)
(0.13126079 -0.00094068394 0)
(0.14214765 -0.0088445714 0)
(0.15465162 -0.012517397 0)
(0.16711152 -0.010317119 0)
(0.17630651 -0.00089239658 0)
(0.17749081 0.01694143 0)
(0.1694436 0.038212777 0)
(0.15168936 0.063515246 0)
(0.10580903 0.077449681 8.2505956e-32)
(0.057489109 0.051084714 1.682963e-31)
(0.00011801691 0.0039658203 -1.5278159e-31)
(0.00012337916 -0.0017406582 -5.4867725e-32)
(0.0086203354 -0.0018024362 0)
(0.0028554817 0.0014026439 0)
(-0.0023751572 0.00068237766 -3.5241197e-32)
(-0.0022110924 0.0030321303 -2.9025732e-32)
(0.0011216491 0.00015610553 2.4587621e-32)
(-0.0056058312 0.0031744031 -1.8162747e-32)
(-0.0027674764 0.0038720863 0)
(0.0027579608 -0.000837111 0)
(0.0054276794 -0.0030261333 0)
(0.0010903721 -0.0034993504 0)
(-0.0015624931 0.00032769531 2.8163251e-33)
(-0.0027346613 -0.0035748871 2.5459916e-32)
(0.0050532354 0.0073425484 0)
(0.021532554 0.0066361842 0)
(0.043279282 0.010559028 0)
(0.056808151 -0.02607707 -2.9889265e-31)
(0.12072797 -0.044761138 -8.6406758e-32)
(0.20920119 -0.038157594 2.1188922e-32)
(0.23275624 -0.020614687 -3.4179994e-34)
(0.28053357 -0.062773344 2.6509735e-31)
(0.37574458 -0.039866492 0)
(0.46948938 -0.13212053 0)
(0.49585703 -0.12952506 0)
(0.5007234 -0.077767857 0)
(0.49793484 -0.0034439914 0)
(0.47610206 0.047488531 0)
(0.43240152 0.068516167 0)
(0.37267353 0.071566761 0)
(0.30781107 0.065489677 0)
(0.24826027 0.056157919 0)
(0.19569134 0.04534777 0)
(0.15012833 0.033681904 0)
(0.11197668 0.025913235 0)
(0.079622037 0.022893557 0)
(0.054242454 0.021607724 0)
(0.031740815 0.016785041 0)
(0.015357497 0.024829927 0)
(0.0029716621 0.0038664416 0)
(-0.0028439543 -0.0023861978 0)
(0.0031434059 -0.00080853977 2.8062898e-32)
(-0.00012597768 -0.00093867658 -6.6371849e-33)
(0.0005700967 -0.0031764241 1.1435674e-33)
(0.0017161232 -1.2680669e-05 0)
(0.0013206937 0.00023472365 0)
(0.00066020702 0.0018332193 0)
(-0.00043434687 0.0011667024 -9.0247872e-33)
(-0.00015199073 0.00032492077 -1.1170833e-33)
(-0.00028510695 0.00033006738 -5.1640158e-33)
(-0.00022904518 -0.00053056153 1.4698601e-32)
(-1.5418911e-05 -9.6944536e-05 5.019125e-33)
(0.0063403776 -0.0045424322 -2.1864839e-34)
(0.021437448 -0.039109991 0)
(0.051280639 -0.05449085 0)
(0.085730927 -0.067911346 0)
(0.11751016 -0.06916064 0)
(0.14729812 -0.061434545 0)
(0.17314176 -0.049330441 0)
(0.18859176 -0.030683874 0)
(0.19599682 -0.013204826 0)
(0.20079396 0.0073736543 0)
(0.19172413 0.039731965 0)
(0.1725087 0.044359138 0)
(0.15620529 0.038917203 0)
(0.14347631 0.02881929 0)
(0.1348971 0.016719055 0)
(0.1316764 0.0061047958 0)
(0.13264617 -0.00054920271 0)
(0.13480709 -0.0015587367 0)
(0.13608096 0.00096021156 0)
(0.13499292 0.0066246517 0)
(0.13178788 0.013415132 0)
(0.12691853 0.023770845 0)
(0.11968638 0.036754016 0)
(0.10553775 0.042762106 0)
(0.080915476 0.050560718 0)
(0.055285367 0.03550738 0)
(-0.04543141 0.020913486 0)
(-0.045240773 -0.23882388 0)
(0.30358979 0.088286773 -2.9573314e-30)
(-0.084906586 0.085216306 2.75276e-29)
(-0.0080436787 -0.035345745 2.7208787e-31)
(-0.00020406382 -0.11600708 -1.5722492e-31)
(0.082475817 0.025075747 0)
(0.099821694 0.18285475 0)
(0.072775672 0.21365054 0)
(0.14916153 0.071803779 0)
(0.16181764 -0.3369108 5.9512536e-30)
(0.12025909 0.068876029 -1.0443475e-30)
(0.15298201 0.0050583202 -1.9885634e-31)
(0.14230325 -0.0086940356 -4.9781879e-32)
(0.14568553 -0.01403145 -1.2633742e-31)
(0.12728611 -0.015866557 -1.0728236e-31)
(0.14283867 0.012456106 1.4737327e-32)
(0.14480868 0.027146856 1.9247822e-30)
(-0.11036629 -0.035780741 -1.2282621e-31)
(0.0041105772 -0.054146887 0)
(0.027421405 -0.00017957519 0)
(0.020016466 -0.027758895 0)
(0.050200182 -0.050747378 0)
(0.08820949 -0.074166655 0)
(0.13475121 -0.094467604 0)
(0.18896644 -0.11410147 0)
(0.25230055 -0.13566634 0)
(0.35802043 -0.15254642 0)
(0.10391684 0.0072032081 0)
(0.11508766 0.006015853 0)
(0.12947073 -0.0033350798 0)
(0.14590533 -0.014859499 0)
(0.16417803 -0.02434067 0)
(0.18403224 -0.028690014 0)
(0.20409247 -0.02484772 0)
(0.22143015 -0.010375755 0)
(0.2321176 0.014860163 0)
(0.23384585 0.047840713 0)
(0.22790439 0.085006649 0)
(0.21467388 0.11577389 0)
(0.18194919 0.12110321 -1.9045454e-32)
(0.13029523 0.074056942 4.225504e-31)
(0.02769174 0.005127552 -5.6025838e-33)
(0.0099526881 -0.0010803014 -1.6271592e-32)
(0.019306455 0.00018391946 -4.9249582e-32)
(0.029323785 -0.0061944728 0)
(0.023001688 1.2653004e-05 0)
(0.0076991728 0.0096240962 0)
(0.0048256195 -0.00056210597 1.1172854e-33)
(0.0048148729 0.0021400697 2.7577854e-32)
(0.0064140126 0.0027527548 -3.545803e-32)
(0.026984662 -0.0044988927 0)
(0.03658905 -0.0055031612 0)
(0.036539025 0.0011713912 0)
(0.021776817 0.0067292509 0)
(0.012324548 -0.0014668024 1.6493639e-32)
(-0.012851496 0.0023650574 -8.1093404e-32)
(0.031287137 -0.029316276 0)
(0.10450175 -0.041405235 0)
(0.19034726 -0.046824734 0)
(0.27970021 -0.086820882 0)
(0.36841594 -0.12224081 0)
(0.4638602 -0.12354418 0)
(0.56030381 -0.10273713 0)
(0.64418989 -0.10496219 0)
(0.69941898 -0.13179778 0)
(0.70964592 -0.13804414 0)
(0.69142442 -0.11932205 0)
(0.66606606 -0.069857488 0)
(0.63769854 0.028998842 0)
(0.59217026 0.09547958 0)
(0.53440836 0.12793455 0)
(0.46898967 0.13881638 0)
(0.3996753 0.13487788 0)
(0.33267752 0.12131455 0)
(0.27015503 0.1035571 0)
(0.21307932 0.08516134 0)
(0.16221129 0.070142878 0)
(0.1178084 0.059489924 0)
(0.080231074 0.051580367 0)
(0.047945869 0.043687313 0)
(0.024192474 0.038724748 0)
(0.0069789358 0.018250505 0)
(-0.0033948995 0.0022418463 1.9670194e-32)
(-0.00073931713 0.0012001129 -1.6844466e-31)
(0.00054384554 -0.0042896003 -6.244526e-34)
(-7.9738136e-05 0.00081886949 0)
(-0.00021551368 0.00051133133 0)
(-1.0615191e-05 0.0026924911 -2.960602e-34)
(-0.00068364168 0.0011170488 -8.3676801e-33)
(0.0011353266 -5.3087307e-05 5.6411252e-33)
(-1.5873144e-05 0.00048726509 -4.9394309e-34)
(-0.00024587651 -0.0009333012 3.6682666e-32)
(0.0064047469 -0.023178272 1.2201342e-33)
(0.021044757 -0.063047109 0)
(0.052891883 -0.089507692 0)
(0.086583484 -0.1007802 0)
(0.11368573 -0.097528288 0)
(0.13424397 -0.089821734 0)
(0.14310286 -0.076332953 7.8469781e-32)
(0.12793123 -0.038456527 8.2846602e-33)
(0.11364796 -0.015840418 2.1478416e-32)
(0.11823461 0.0049715906 1.3780336e-32)
(0.1271007 0.053931704 0)
(0.12909208 0.051797177 0)
(0.13158356 0.04716077 0)
(0.13072951 0.036170603 0)
(0.13005227 0.019715914 0)
(0.13239809 0.0049586515 0)
(0.13701468 -0.0038125551 0)
(0.14185348 -0.0040015521 0)
(0.14397648 3.2686664e-05 0)
(0.14397572 0.0081139923 0)
(0.14308563 0.01619796 0)
(0.14311441 0.027442849 0)
(0.14187143 0.044444718 0)
(0.13190388 0.064477501 0)
(0.10399929 0.082909942 0)
(0.053547183 0.088119252 0)
(0.046456304 0.075495003 0)
(0.019939592 -0.05910773 2.3817521e-31)
(-0.1791688 0.17917467 9.4082419e-30)
(-0.053978808 -0.13240612 -9.8323765e-31)
(0.021041546 -0.071222005 0)
(0.10198882 0.19424568 0)
(0.077157434 0.20026109 0)
(0.18465315 -0.06564393 -1.1127481e-30)
(0.11693179 -0.17661156 -2.2202359e-30)
(0.074681952 0.070238054 2.2480227e-31)
(-0.015681222 -0.036550099 2.1265556e-31)
(-0.0083665016 -0.0060666946 0)
(0.025860737 -0.053315661 0)
(0.063879221 -0.088321833 0)
(0.10701544 -0.11966394 0)
(0.15603524 -0.14823139 0)
(0.20967827 -0.17606073 0)
(0.26941846 -0.20351972 0)
(0.36767443 -0.22218998 0)
(0.10318354 -0.00092141253 0)
(0.1139461 -0.0087948533 0)
(0.13058839 -0.021144068 0)
(0.151108 -0.035006136 0)
(0.17445646 -0.046687032 0)
(0.20022644 -0.052446341 0)
(0.22720113 -0.047940367 0)
(0.25227045 -0.029205274 0)
(0.27092742 0.0034273106 0)
(0.2817263 0.04444173 0)
(0.28772129 0.086047089 0)
(0.29362744 0.12033873 0)
(0.29787194 0.13619154 0)
(0.27157549 0.12495069 4.9043852e-31)
(0.22356832 0.083453002 8.2481896e-32)
(0.17895835 0.047705824 -6.7135209e-32)
(0.13570936 0.025241661 2.8047439e-33)
(0.11579955 -0.00028581903 -2.9417182e-32)
(0.10584683 -0.010820362 0)
(0.09977192 -0.0070368649 0)
(0.092521835 -0.00086691427 0)
(0.080218664 0.01309865 0)
(0.062948396 0.02643225 0)
(0.048536893 0.014796747 -3.4504322e-32)
(0.022678169 -0.012393173 -1.0833169e-32)
(0.046595504 -0.019586069 0)
(0.072958403 -0.02163005 0)
(0.092870823 -0.012932445 0)
(0.10061746 0.0058378033 0)
(0.095064156 0.026029211 0)
(0.073638166 0.023535208 -7.7977249e-33)
(0.015220215 -0.015482802 -1.6106034e-31)
(0.046774137 -0.018116251 -1.9631008e-31)
(0.12321893 -0.097527673 0)
(0.19215668 -0.1317028 0)
(0.27666079 -0.15708117 0)
(0.36627469 -0.19003811 0)
(0.45493515 -0.22150266 0)
(0.54851253 -0.22465886 0)
(0.63327177 -0.20052926 0)
(0.70228101 -0.18592448 0)
(0.73784881 -0.15105996 0)
(0.72044785 -0.11311102 0)
(0.68052379 -0.085386748 0)
(0.6434956 -0.039747621 0)
(0.60568454 0.087838159 0)
(0.55185254 0.15738486 0)
(0.49804997 0.19241354 0)
(0.44891319 0.20424028 0)
(0.40130045 0.20036401 0)
(0.35366101 0.18376738 0)
(0.30116891 0.16377333 0)
(0.24753547 0.14229359 0)
(0.19501466 0.12162991 0)
(0.1462828 0.10471614 0)
(0.10235978 0.090750471 0)
(0.063359562 0.077144651 0)
(0.031444163 0.061876117 0)
(0.00521588 0.036642187 0)
(-0.0069291364 -0.002607595 1.5615375e-31)
(-0.0005593498 -0.0046855198 -1.6848702e-32)
(-0.0022566001 0.0021246744 0)
(0.0016481544 -0.0013364434 0)
(0.0035341418 0.004554875 -2.7138174e-32)
(0.0081425861 -0.0022631554 2.5724897e-32)
(0.0030056481 0.0024921261 -6.0040613e-32)
(0.0001843189 0.00016400433 -3.7928016e-32)
(0.001794384 -0.034445026 2.1689841e-33)
(0.016083754 -0.088970854 0)
(0.049799802 -0.12220289 0)
(0.078001648 -0.12652765 0)
(0.090205898 -0.10945155 0)
(0.082710855 -0.083315484 -6.8691398e-32)
(0.060529128 -0.048470569 1.1376684e-31)
(0.019878927 -0.0014363633 4.7596723e-32)
(0.02867281 0.037222708 -1.3008733e-32)
(0.062635214 0.03587366 -5.4459551e-33)
(0.089402756 0.040626085 0)
(0.098372344 0.03155568 0)
(0.10450615 0.014686655 0)
(0.11050807 -0.00033393572 0)
(0.11764082 -0.011839179 0)
(0.12320409 -0.0076643167 0)
(0.1240485 -0.0023787175 0)
(0.12416282 0.0099196156 0)
(0.12535927 0.013885278 0)
(0.13116764 0.024943661 0)
(0.13887471 0.046470552 0)
(0.1433376 0.082089218 0)
(0.1230051 0.13039259 0)
(0.065945028 0.14016291 0)
(0.020510987 0.0543948 0)
(-0.051891305 -0.022047173 6.8816119e-31)
(-0.046175665 -0.11164175 1.6916445e-30)
(-0.050238261 -0.21541556 1.2062987e-29)
(0.014039444 0.20816564 0)
(-0.047360487 0.22411364 0)
(-0.012197047 -0.14113653 3.7895816e-30)
(0.0091953038 0.022046301 -1.3628864e-31)
(0.015034782 -0.041861145 0)
(0.048488594 -0.089673385 0)
(0.084838961 -0.12945941 0)
(0.12606708 -0.1654362 0)
(0.17215777 -0.1991486 0)
(0.22089014 -0.23189026 0)
(0.27329559 -0.26303378 0)
(0.35885947 -0.28365586 0)
(0.10261108 -0.0078816223 0)
(0.11230366 -0.023608731 0)
(0.12882259 -0.040998505 0)
(0.15028531 -0.058808852 0)
(0.17544729 -0.073963574 0)
(0.20401024 -0.082207436 0)
(0.2355038 -0.077240466 0)
(0.26511666 -0.053928278 0)
(0.2874285 -0.01445081 0)
(0.30165927 0.0327439 0)
(0.31273077 0.074873719 0)
(0.32720697 0.10711636 0)
(0.3454937 0.12595346 0)
(0.35376919 0.12290669 0)
(0.34451515 0.11073367 0)
(0.31922357 0.087960967 0)
(0.2830292 0.062261772 0)
(0.24895549 0.03711824 0)
(0.21784228 0.013532124 0)
(0.19169965 0.0093857803 0)
(0.17239102 0.014609978 0)
(0.1566888 0.028802653 0)
(0.14320857 0.046877551 0)
(0.11820908 0.052590456 1.144501e-31)
(0.092175974 0.040734931 4.8851516e-31)
(0.022599147 -0.016519787 -6.8600909e-32)
(0.061875185 -0.039928155 -3.2754148e-32)
(0.10483238 -0.053866795 0)
(0.1410092 -0.050098806 0)
(0.16973252 -0.031510634 0)
(0.18659474 0.00019059363 0)
(0.19153478 0.04020252 0)
(0.16800462 0.077513764 -1.5755497e-31)
(0.12981656 0.068240412 -2.5193547e-32)
(0.051845664 -0.054643362 4.040403e-33)
(0.11665913 -0.10513429 0)
(0.17932283 -0.16193956 0)
(0.24379562 -0.20637989 0)
(0.31275683 -0.2413328 0)
(0.3847769 -0.27244559 0)
(0.45944668 -0.30192736 0)
(0.54231156 -0.31963905 0)
(0.56716418 -0.32911726 -6.9418599e-31)
(0.53423084 -0.23603104 -2.0809465e-31)
(0.49756719 -0.1414796 -2.849985e-31)
(0.42750252 -0.075722302 -4.9910045e-32)
(0.35469233 -0.042703425 5.2478958e-32)
(0.33869661 -0.0011991205 -2.8544065e-32)
(0.36554488 0.12491112 0)
(0.37033498 0.18788117 0)
(0.3703011 0.22210441 0)
(0.36250387 0.23389623 0)
(0.34816185 0.23252447 0)
(0.32149335 0.22539581 0)
(0.29152787 0.20920588 0)
(0.25213146 0.19075343 0)
(0.20741706 0.17084853 0)
(0.16178615 0.15165597 0)
(0.11714255 0.13390868 0)
(0.075395563 0.11509212 0)
(0.040095481 0.0905916 0)
(0.008208424 0.055665147 -3.4722066e-32)
(0.0026883839 0.0062408527 -3.7500426e-33)
(-0.0033634305 -0.0011732049 8.269971e-33)
(-0.0070703757 0.0030640433 0)
(0.0059445555 -0.01083426 0)
(0.0099061195 0.010439932 -1.2895752e-32)
(0.024186178 -0.0064645716 3.0665214e-31)
(0.024394839 -0.0035036233 4.685718e-32)
(0.0086161446 0.01135672 -2.29118e-32)
(0.0017759331 -0.045383207 3.3072874e-33)
(0.016296257 -0.1162275 0)
(0.047972472 -0.15208581 0)
(0.071440929 -0.14278255 0)
(0.071550948 -0.10440293 0)
(0.048567964 -0.059926264 -4.2348487e-32)
(0.024151781 0.011884854 3.7355777e-32)
(0.041090719 0.01845372 3.7764606e-32)
(0.057173324 0.020416894 -4.0017349e-33)
(0.06879253 0.0075341659 0)
(0.073104454 -0.005848778 0)
(0.075077418 -0.022570577 0)
(0.07548259 -0.0043689714 0)
(0.071284786 -0.001869455 0)
(0.067330181 0.005270693 1.8927648e-32)
(0.067212388 0.008128666 -4.0194857e-32)
(0.078307584 0.014356683 -5.9719073e-33)
(0.099391322 0.029886898 -9.9849246e-33)
(0.13659771 0.062834643 -1.323278e-31)
(0.18493899 0.12037557 9.034269e-33)
(0.24981088 0.20038899 5.4357351e-31)
(0.20759716 0.13947178 0)
(0.13016562 0.056344634 -3.9587001e-32)
(-0.032576692 -0.22154718 1.2288987e-29)
(-0.0083836699 0.20437233 0)
(0.01975202 0.24131083 0)
(0.025915735 -0.17584123 4.1430847e-30)
(0.015107176 -0.034472195 -2.0266688e-33)
(0.032482993 -0.071532338 0)
(0.068192449 -0.12264837 0)
(0.10360355 -0.16745794 0)
(0.14184955 -0.20752598 0)
(0.18309373 -0.24456147 0)
(0.22556016 -0.28006818 0)
(0.26989833 -0.31330486 0)
(0.34119745 -0.33560475 0)
(0.10210767 -0.013793981 0)
(0.11012417 -0.036999106 0)
(0.12460602 -0.059536412 0)
(0.14422297 -0.081522318 0)
(0.16802095 -0.10043586 0)
(0.19580652 -0.11230313 0)
(0.22746914 -0.11106781 0)
(0.25496579 -0.081991943 0)
(0.27242769 -0.030062141 0)
(0.28367629 0.020693231 0)
(0.29415083 0.060442733 0)
(0.31205129 0.085863452 0)
(0.33813985 0.10221971 0)
(0.36341161 0.11295976 0)
(0.37393053 0.11718329 0)
(0.36463242 0.10895734 0)
(0.3438661 0.09308635 0)
(0.31582424 0.070831044 0)
(0.28593695 0.047592143 0)
(0.25953045 0.035210143 0)
(0.24022839 0.033155418 0)
(0.22856654 0.041028577 0)
(0.22556441 0.056378087 0)
(0.23076764 0.068494684 0)
(0.221985 0.08211399 3.1984619e-32)
(0.19628093 0.051377505 -9.4108386e-32)
(0.17597337 0.030990235 4.6632771e-32)
(0.16446228 0.025134196 1.8703228e-32)
(0.16101195 0.023946429 1.3930359e-32)
(0.14783407 0.022760527 -9.4383941e-33)
(0.15414584 0.034107661 -2.7746874e-31)
(-0.013747546 0.015709527 6.5202182e-31)
(0.0044106509 -0.041873863 -5.3877853e-32)
(0.064997326 -0.064198043 -5.5714357e-32)
(0.14253503 -0.096162194 0)
(0.19068138 -0.10029437 0)
(0.23100048 -0.087325565 0)
(0.2627633 -0.058907549 0)
(0.28648302 -0.016546261 0)
(0.30515634 0.034684199 0)
(0.32441412 0.087878552 0)
(0.31449239 0.14539266 -1.1426795e-31)
(0.26860409 0.1093627 -2.9251245e-31)
(0.23642236 0.080490793 7.1382002e-32)
(0.2152122 0.06402932 -3.9463078e-31)
(0.044798685 -0.045174598 2.1485421e-32)
(0.097048206 -0.10125305 5.0271463e-32)
(0.1626619 -0.16848416 0)
(0.21835724 -0.22092975 0)
(0.26867352 -0.26462295 0)
(0.31654459 -0.29757785 0)
(0.35753443 -0.33317643 0)
(0.39373 -0.35870814 0)
(0.38746731 -0.3411114 2.0887256e-30)
(0.29142476 -0.241519 3.7445944e-31)
(0.034892195 -0.020310301 -2.7870344e-31)
(0.038073975 0.095364538 7.5857041e-31)
(0.10574991 0.13791308 2.0793101e-32)
(0.18920779 0.1911463 0)
(0.23277075 0.2215449 0)
(0.25872072 0.23707576 0)
(0.26329275 0.23992643 0)
(0.25177811 0.23579671 0)
(0.23001834 0.22624676 0)
(0.20184574 0.21108422 0)
(0.16518579 0.19487413 0)
(0.12399796 0.17755098 0)
(0.0802204 0.15716327 0)
(0.034395077 0.12638567 0)
(0.0043462414 0.073751095 -8.4650385e-32)
(0.00073448504 -0.00015027094 4.670898e-34)
(0.0023346457 -0.0073529572 -5.5430371e-32)
(0.02385118 -0.027968005 0)
(0.022617021 0.03261854 -8.4187247e-32)
(-0.017572806 0.0046728844 3.2243059e-30)
(0.0043634241 0.0018423975 -1.9933452e-32)
(-0.030889617 0.012320508 -3.2140421e-31)
(-0.0035877227 -0.092497439 9.9470403e-31)
(0.054249095 -0.048509925 8.2252885e-31)
(0.07269576 -0.0020936365 1.1845932e-30)
(0.033321426 0.02761709 0)
(0.006899432 0.031051192 -2.0327948e-32)
(0.0034363197 -0.057474246 3.0803295e-33)
(0.018142892 -0.14186793 0)
(0.045669123 -0.17680138 0)
(0.063842663 -0.15350796 0)
(0.049457838 -0.087906197 -1.3545053e-32)
(0.026726657 -0.046152453 -2.2368301e-32)
(0.027996976 0.0070435667 -2.020833e-32)
(0.029101625 0.0017271497 -1.0568217e-33)
(0.03176788 -0.0043834837 -2.9301448e-33)
(0.0094852784 -0.016979141 2.2339651e-32)
(-0.0050950598 0.002881041 1.5878432e-32)
(0.00049199516 0.0015794097 3.2648614e-32)
(0.0017957364 0.0062185745 2.4324927e-31)
(0.15156272 0.13752501 1.4668905e-31)
(0.19305389 0.22624148 -3.1714775e-31)
(0.10699337 0.20947858 -6.8229985e-31)
(0.067269742 -0.2127145 5.5399151e-30)
(0.041214274 0.14274872 0)
(0.12394809 0.22311654 0)
(0.083831583 -0.12669522 3.6986311e-31)
(0.023822987 -0.048001658 -1.5172111e-32)
(0.053154269 -0.1031756 0)
(0.085290201 -0.15634416 0)
(0.1184356 -0.20309521 0)
(0.15273919 -0.24500692 0)
(0.18859643 -0.28393703 0)
(0.22486903 -0.32090624 0)
(0.26176002 -0.35489895 0)
(0.31942044 -0.37815636 0)
(0.10148825 -0.018333962 0)
(0.10717975 -0.047311581 0)
(0.1174812 -0.075084267 0)
(0.13174172 -0.10173362 0)
(0.14923132 -0.12532207 0)
(0.17000091 -0.14172405 0)
(0.1961906 -0.14271219 0)
(0.20693337 -0.10984782 -1.7757247e-31)
(0.19963721 -0.051593975 -7.8051493e-32)
(0.2036552 0.019693993 1.5249441e-31)
(0.22266397 0.047821502 0)
(0.24590929 0.05992461 0)
(0.28139717 0.069947195 0)
(0.31803771 0.090487556 0)
(0.34296329 0.11138726 0)
(0.3444172 0.11930847 0)
(0.3348571 0.11188583 0)
(0.32000198 0.094288662 0)
(0.30371357 0.072116434 0)
(0.28865485 0.055064535 0)
(0.27867427 0.045746369 0)
(0.27641139 0.045298658 0)
(0.28214554 0.049987016 0)
(0.29616284 0.055301896 0)
(0.31455253 0.056036315 0)
(0.33078575 0.047109588 0)
(0.34271817 0.036172899 0)
(0.35305456 0.032806672 0)
(0.36237064 0.035164803 0)
(0.36884087 0.043154917 0)
(0.34787782 0.092906788 -2.4744575e-31)
(0.29846207 0.10609724 2.5776094e-31)
(0.30610478 0.10366045 -3.8624084e-31)
(0.11678796 -0.04192053 -4.4670424e-31)
(0.1046613 0.014971587 1.4458617e-31)
(0.1041317 0.012331171 4.232176e-31)
(0.16871694 -0.094768131 0)
(0.22145247 -0.13415569 0)
(0.26593334 -0.14944696 0)
(0.30180372 -0.14372863 0)
(0.33134055 -0.12264292 0)
(0.35540049 -0.08655464 0)
(0.37665399 -0.039286738 0)
(0.39812764 0.010840827 0)
(0.42428806 0.060591995 0)
(0.45226941 0.10356014 0)
(0.46985419 0.12806399 0)
(0.47180904 0.12622633 0)
(0.43426411 0.12956177 1.4352976e-31)
(0.37407828 0.10436389 5.6534302e-31)
(0.32299326 0.079308394 -4.3278147e-32)
(0.26798559 0.06048616 -3.8203772e-32)
(0.24576966 0.061778623 -5.9862198e-31)
(0.064037319 -0.045630682 -1.5484569e-31)
(0.12736654 -0.10973616 1.2443437e-31)
(0.17982189 -0.17297596 0)
(0.21686331 -0.22035465 0)
(0.25083994 -0.26343591 0)
(0.28002359 -0.30005838 0)
(0.30211085 -0.32905047 0)
(0.30752946 -0.34382639 0)
(0.29177909 -0.33578082 0)
(0.20384415 -0.25632904 1.1995446e-30)
(0.042556738 0.085732009 1.994666e-32)
(0.091361551 0.12776667 0)
(0.13490141 0.17316417 0)
(0.17260519 0.20913543 0)
(0.19728308 0.23196141 0)
(0.20645976 0.24187081 0)
(0.20166989 0.24144143 0)
(0.18650075 0.23743402 0)
(0.16181929 0.22921042 0)
(0.12925377 0.21703133 0)
(0.090983307 0.19911786 0)
(0.050496233 0.16783192 0)
(0.018690152 0.10473923 6.9261485e-32)
(-0.022136544 -0.011436401 1.5985019e-31)
(-0.0013356635 -0.063582214 0)
(0.024248774 0.067269142 -7.9385275e-31)
(-0.035761364 0.01882809 -7.2094127e-31)
(-0.0073787716 -0.019079514 7.4969221e-33)
(-0.014729612 0.0032250999 3.5293975e-31)
(-0.009026755 -0.039965111 -4.8055407e-31)
(0.023372656 0.020779328 0)
(0.036925875 0.029909196 0)
(0.0039366602 -0.022554123 0)
(-0.043872004 -0.045066989 0)
(-0.015105862 0.015666297 0)
(-0.026052467 0.052026182 4.5297042e-31)
(-0.010877955 0.03335283 4.7817809e-31)
(0.0054106312 -0.066805223 -2.2614726e-33)
(0.017655885 -0.16220916 0)
(0.039128582 -0.19349874 0)
(0.053236171 -0.13824855 2.6501082e-31)
(0.026851341 -0.052597067 1.4813493e-31)
(0.10908322 0.21052313 2.2737741e-31)
(0.11716342 0.23623728 4.5392749e-31)
(0.05744006 0.09300943 3.2701775e-31)
(0.32432356 -0.22214448 -9.4254252e-30)
(0.42791791 -0.18479571 1.949165e-30)
(0.33284417 0.096519736 0)
(0.30993308 0.25204827 0)
(0.17253889 0.044382846 2.9741621e-31)
(0.038076148 -0.062662617 -7.3956016e-33)
(0.074387363 -0.1340188 0)
(0.1010025 -0.18723982 0)
(0.12912327 -0.23426916 0)
(0.15847952 -0.2773287 0)
(0.18903919 -0.31747885 0)
(0.21970862 -0.35508811 0)