/*--------------------------------*- C++ -*----------------------------------*\
  =========                 |
  \\      /  F ield         | OpenFOAM: The Open Source CFD Toolbox
   \\    /   O peration     | Website:  https://openfoam.org
    \\  /    A nd           | Version:  6
     \\/     M anipulation  |
\*---------------------------------------------------------------------------*/
FoamFile
{
    version     2.0;
    format      ascii;
    class       volScalarField;
    location    "0.22";
    object      pc;
}
// * * * * * * * * * * * * * * * * * * * * * * * * * * * * * * * * * * * * * //

dimensions      [1 -1 -2 0 0 0 0];

internalField   nonuniform List<scalar> 
9137
(
4461.1986
4460.8127
4460.0469
4458.9141
4457.4371
4455.6519
4453.6129
4451.3997
4449.1253
4446.9515
4444.9909
-3477.9888
-712.15255
-1175.5827
-2349.2968
-2703.0366
-2801.5047
-2854.1297
-2854.9798
-2855.1625
-2855.2202
-2855.2219
-2855.2219
-5059.6309
-4578.2288
-398.51079
-231.39038
217.92887
-2574.2738
-4675.0412
-6892.4379
-1616.8942
-4122.9415
313.85363
610.80092
763.24472
847.31842
1128.7408
1133.4304
1166.0455
-144.91547
-2972.1055
-4311.594
-4753.1638
-4770.3108
-4770.2761
887.50441
887.50442
887.51515
887.53591
887.56311
887.58793
887.60372
887.61206
887.61222
369.61688
369.6171
369.61796
369.61848
369.61848
-12420.017
-7015.9532
-3901.4568
-2336.4616
-2158.6723
-2157.4673
-2158.0914
-2160.2736
-2164.3218
-2170.534
-2178.0447
-2184.1581
-2188.514
-2191.5889
-2193.9544
-2196.057
-2198.1351
-2200.1668
-2201.8324
-2202.5716
-2201.5271
-2197.355
-2187.0948
-3058.4485
-5136.5009
-5650.3412
-6643.601
-6654.9277
-6654.5174
-6654.6183
-6654.6187
-8802.3837
-8802.372
-8801.7026
-8800.4062
-8798.1112
-8794.5056
-8789.1254
-8781.1412
-8768.7596
-8751.006
-8737.1929
-8726.1909
-8716.7414
-8707.8415
-8698.9921
-8689.9644
-8680.7135
-8671.8858
-8669.1931
-8338.408
-7435.4325
-6192.394
-4394.4929
-3331.5578
-3090.4531
-3072.3519
-3071.5659
-3071.0572
4461.5844
4461.1926
4460.4138
4459.2584
4457.7453
4455.9056
4453.7872
4451.4609
4449.0247
4446.6041
4444.1118
4442.3562
1047.8212
2931.8386
901.37022
-678.31763
-2383.5477
-2860.1605
-2857.4479
-2855.4576
-2855.3
-2855.2484
-5118.33
1349.3057
3219.4241
3393.8536
3391.3065
2521.8443
-1846.9064
-2130.0939
1169.2016
832.67397
1917.8626
1851.8371
1816.2465
1055.7071
624.16015
745.10825
831.00215
895.33122
954.34271
997.49168
1030.6857
1057.383
1079.1156
1097.0971
1112.4327
1125.8754
1136.9537
1148.2712
1138.875
937.74298
-953.24351
-3488.0533
-4759.3002
887.49651
887.5037
887.52923
887.56523
887.59681
887.61234
887.61675
369.61655
369.61636
369.6183
369.6188
-7349.032
-2738.2939
-2137.1538
-2154.2914
-2155.2166
-2155.6383
-2156.5331
-2158.4076
-2162.1578
-2169.2356
-2179.4419
-2185.9156
-2189.795
-2192.2983
-2194.2173
-2196.0815
-2198.1815
-2200.533
-2202.7588
-2204.3553
-2204.6547
-2203.4431
-2201.6116
-2205.0522
-2198.8237
-3785.7618
-4834.5152
-6402.4014
-6654.0061
-6654.7123
-6654.6244
-8802.7778
-8802.4374
-8801.4048
-8799.4218
-8796.2802
-8791.7295
-8785.2652
-8777.5098
-8743.3997
-8734.7841
-8725.2567
-8716.1919
-8707.7908
-8699.1706
-8690.1877
-8680.29
-8665.7511
-8391.3194
-7239.6811
-4994.9303
-3382.0181
-3071.8314
-3078.3928
-3077.3095
-3073.0788
-3071.2887
-3070.5486
4462.362
4461.9596
4461.1572
4459.9603
4458.3803
4456.4379
4454.1693
4451.632
4448.9086
4446.1009
4443.304
4440.4587
4437.9303
4365.213
4331.4929
4348.434
4031.8206
1394.6116
-2897.1533
-2873.1213
3383.4844
3396.7841
3394.5417
3390.3418
3384.1353
763.30536
921.46656
1927.583
1912.1759
1897.7696
1777.8051
1647.4692
1592.3174
1529.6578
1312.7571
1051.7102
916.47438
902.5637
922.36408
949.69228
981.47331
1012.2735
1039.7504
1063.6021
1084.0715
1101.6217
1116.7222
1129.4728
1139.9722
1149.0669
1155.0742
1172.475
761.76184
-1265.3557
-3865.6229
887.48042
887.4696
887.51184
887.5715
887.62149
887.63388
887.62572
369.61406
369.62007
369.61953
-4134.997
-2149.4454
-2145.5505
-2150.1068
-2152.2644
-2153.336
-2153.9952
-2154.6657
-2156.666
-2164.8089
-2184.5717
-2190.2674
-2192.4521
-2193.5919
-2194.5351
-2195.8702
-2197.9763
-2201.0247
-2204.3143
-2207.4363
-2209.2932
-2210.1509
-2210.8561
-2212.9391
-2216.5582
-2256.0539
-3948.9527
-5259.7288
-6534.67
-6664.339
-8803.5341
-8804.0793
-8803.3539
-8801.8911
-8799.4639
-8796.1684
-8792.3842
-8721.4679
-8715.3812
-8708.0326
-8699.7648
-8691.229
-8683.6447
-8669.059
-7878.3187
-5510.9202
-3658.996
-3087.5921
-3077.0873
-3075.1904
-3073.5333
-3071.365
-3069.9617
-3069.2998
4463.5419
4463.1266
4462.295
4461.0453
4459.3775
4457.2966
4454.8202
4451.9891
4448.8769
4445.5869
4442.2008
4438.7284
4434.9726
4431.0016
5466.267
4357.0475
4359.9826
4355.3021
4359.2358
4373.7458
4212.7239
3418.6195
3411.9957
3403.9626
3397.1864
3391.3831
3390.2603
3410.0717
1884.621
1923.4217
1907.8945
1868.1655
1789.6617
1694.1911
1605.5992
1500.3581
1347.7509
1187.498
1076.9288
1026.3148
1006.2068
999.07667
1010.2939
1030.0308
1051.7439
1072.4766
1091.178
1107.6377
1121.9326
1134.1448
1144.3943
1152.9487
1159.8786
1166.8657
1165.531
-376.34738
-4656.1158
887.40094
887.47036
887.58719
887.69225
887.66598
369.57061
369.61067
369.62651
-2136.1695
-2142.921
-2145.496
-2148.3208
-2150.3982
-2151.4461
-2151.1874
-2149.0275
-2143.7756
-2148.8126
-2203.7686
-2198.1301
-2196.1542
-2195.0821
-2194.4609
-2194.8878
-2196.8288
-2201.2753
-2206.0374
-2211.7823
-2214.9308
-2217.0114
-2218.7229
-2219.2899
-2214.5189
-2194.6946
-2540.4169
-4551.8243
-6942.839
-8806.1945
-8806.2669
-8805.3249
-8803.5159
-8801.2583
-8797.8624
-8840.3836
-5602.4899
-3081.1165
-3077.6333
-3073.7356
-3071.7484
-3070.2685
-3068.8862
-3067.8935
-3067.3892
4465.1369
4464.71
4463.8508
4462.5485
4460.7877
4458.5507
4455.826
4452.627
4449.0232
4445.1691
4441.184
4437.0684
4432.7286
4427.8424
4422.9627
4419.5507
4419.3367
4397.2286
4365.4476
4364.1141
4360.7233
4359.4614
4358.862
4344.0315
3428.7654
3420.0426
3409.6911
3398.8575
3387.7435
3376.1675
3359.6919
2040.9737
2017.3241
1968.1615
1927.8146
1877.3354
1808.5268
1726.1107
1635.3778
1529.2721
1400.8841
1273.5927
1177.4256
1119.5609
1077.0783
1030.1185
1030.5986
1045.8135
1064.7182
1083.3818
1100.5256
1115.8167
1129.2249
1140.7781
1150.5102
1158.4539
1164.6247
1169.577
1175.8245
56.53083
887.27085
887.37224
887.62657
887.86056
369.50931
369.65982
369.64639
-2143.7638
-2143.7726
-2145.1917
-2147.282
-2149.5616
-2150.7296
-2150.878
-1385.5151
-2235.622
-2203.5192
-2198.9524
-2196.1213
-2193.3384
-2192.3915
-2193.1756
-2201.2102
-2206.7778
-2218.7247
-2221.6361
-2224.241
-2227.7343
-2230.9785
-2227.5328
-2195.5596
-2370.9493
-4527.6322
-8808.8466
-8810.5873
-8809.6259
-8808.2287
-8806.8184
-3627.5647
-3062.6087
-3068.0892
-3068.4735
-3067.7994
-3066.906
-3066.0181
-3065.3369
-3064.9745
4467.1589
4466.7256
4465.8496
4464.5103
4462.6743
4460.2925
4457.3058
4453.67
4449.4195
4444.8823
4440.2974
4435.633
4430.7702
4425.6144
4420.1341
4414.4467
4407.5185
4394.573
4378.126
4370.0013
4364.0156
4359.0247
4353.3349
4343.3508
4336.8367
3454.4672
3442.4144
3429.8594
3415.901
3400.8083
3384.5651
3366.6508
3344.5845
3322.8293
2080.9668
2046.4233
2003.6425
1957.8683
1904.8354
1840.9988
1766.3487
1680.5243
1572.0567
1448.4709
1333.5595
1248.2184
1208.8393
1159.1513
1013.7244
1036.1706
1057.9078
1077.9341
1095.8063
1111.7245
1125.8782
1138.3704
1149.2311
1158.4136
1165.7308
1170.5875
1170.993
1159.1781
1018.8732
887.01203
887.12184
887.70405
888.27122
368.71805
369.39937
369.8397
-2142.7524
-2143.1931
-2144.216
-2146.0541
-2149.8733
-2148.6492
-2202.2402
-2200.5364
-2197.5492
-2190.3802
-2188.1639
-2182.2721
-2203.612
-2201.1389
-2235.7522
-2229.3348
-2231.3763
-2238.2181
-2251.7859
-2275.8714
-2317.7326
-2438.939
-1964.5463
-8815.9998
-8814.8086
-8813.1948
-8811.8711
-3057.3725
-3061.5249
-3063.6416
-3064.27
-3064.0699
-3063.5381
-3062.9433
-3062.4616
-3062.1974
4469.6142
4469.184
4468.3115
4466.969
4465.1064
4462.6393
4459.4347
4455.3275
4450.1025
4444.6432
4439.4905
4434.3959
4429.105
4423.4753
4417.4877
4411.0401
4403.4209
4393.4715
4382.4823
4373.7495
4366.3131
4359.2866
4351.642
4342.388
4331.4129
4318.7884
4306.0269
4292.7482
4278.6295
4263.8689
4250.7798
3949.1639
3460.8373
3466.2576
3456.5804
3441.0577
3423.2446
3403.9091
3383.0574
3360.2224
3334.4975
3302.8095
3266.1776
3228.7604
3192.4508
2169.747
2127.2993
2085.9294
2042.118
1995.1806
1943.1405
1884.2842
1817.758
1738.9263
1652.2239
2445.7289
958.63122
1038.5129
1071.7135
1093.304
1110.1845
1124.688
1137.5989
1149.1468
1159.3612
1168.1809
1175.4668
1181.0017
1184.7078
1189.7643
886.59154
886.3374
887.80611
889.15495
232.47691
342.25254
353.24851
360.98906
365.5181
368.29817
369.89218
370.27933
-2142.0457
-2142.1059
-2142.425
-2142.8448
-2145.1651
-1508.9937
-2203.2077
-2189.5795
-2187.6419
-2149.9692
-2211.1978
-2090.5065
-2044.9952
-2330.4593
-2351.8815
-2336.2139
-8823.7499
-8820.6453
-8817.8994
-8816.1061
-3059.1024
-3059.9232
-3060.6827
-3060.895
-3060.6725
-3060.2332
-3059.7555
-3059.369
-3059.1561
4472.4997
4472.0848
4471.2434
4469.9477
4468.143
4465.7235
4462.4659
4457.8794
4451.0947
4444.5996
4438.6255
4433.3549
4427.7784
4421.6939
4415.3014
4408.8049
4401.6535
4393.4097
4384.5819
4376.2012
4368.2006
4360.1668
4351.5584
4341.9203
4331.2198
4319.0178
4305.7636
4291.7073
4276.7378
4260.824
4243.1392
4225.2991
4206.9566
3957.029
3730.9884
3687.0924
3511.5657
3495.5286
3475.8364
3454.5459
3432.1098
3408.5257
3383.532
3356.6841
3327.3361
3294.7243
3257.7276
3217.356
3171.133
3120.2391
3069.0102
3014.757
2963.8076
2267.8124
2217.3395
2171.3673
2127.8247
2083.7194
2037.5981
1988.262
1935.2391
1879.3222
1822.6002
1061.2511
1095.9519
1113.3839
1126.9395
1139.2425
1150.6828
1161.255
1170.8849
1179.481
1186.9531
1193.2424
1198.4057
1202.637
884.24793
887.90651
891.03506
-187.73686
231.73519
201.87261
348.72779
341.94648
354.99525
363.2875
368.05294
370.33518
371.54928
371.13186
-2141.2174
-2140.7762
-2140.5332
-2139.1834
-2135.6293
-2350.735
-2347.6467
-2346.7237
-8840.9506
-8832.2593
-8825.9629
-8821.5693
-8818.8889
-3058.6852
-3058.4333
-3058.271
-3057.9552
-3057.4919
-3056.9667
-3056.4766
-3056.103
-3055.902
4475.8
4475.4121
4474.6295
4473.4352
4471.7946
4469.6456
4466.8975
4463.6945
4441.6262
4437.2285
4432.5209
4426.9807
4420.579
4413.6173
4407.2244
4400.9785
4393.9319
4386.2344
4378.2726
4370.121
4361.6215
4352.5046
4342.5148
4331.5051
4319.3108
4305.9878
4291.5587
4275.9191
4258.9299
4240.4166
4219.7512
4195.0602
4167.6297
4140.4008
4113.5311
4090.2836
4218.4715
3817.2488
3679.9442
3677.3655
3639.6395
3566.5575
3526.8983
3496.6903
3469.179
3442.1228
3414.5513
3385.8604
3355.6448
3323.4383
3288.666
3250.7821
3209.7901
3165.4895
3116.51
3063.2447
3004.6365
2934.0965
2856.4174
2784.3035
2718.4095
2657.5265
2600.5962
2545.2614
2487.9721
2427.4003
2367.6307
2310.1974
2258.9335
2213.4801
2170.2837
2127.3387
2083.2307
2037.0713
1989.0864
1941.8787
1902.2116
1174.558
1138.6663
1137.3398
1144.9465
1154.6601
1164.6325
1174.3051
1183.4414
1191.9042
1199.6209
1206.6097
1213.0509
1218.8794
879.2243
888.32069
894.39656
901.04565
444.87396
1551.8721
653.73895
1041.8246
758.70526
882.4526
602.89835
403.82487
368.91705
372.46979
373.42397
373.48591
-2137.5001
-2139.1846
-2139.4599
-2139.1577
-2352.3029
-2349.5396
-2345.6446
-2341.3258
-8875.5609
-8862.1486
-8848.872
-8837.6048
-8829.4012
-8823.3684
-8819.4467
-3059.3807
-3058.3815
-3056.9525
-3056.0131
-3055.1631
-3054.3734
-3053.6654
-3053.0813
-3052.6643
-3052.4471
4479.4881
4479.1341
4478.4274
4477.3688
4475.9546
4474.1666
4472.216
4468.8865
4410.1002
4406.0544
4401.1042
4395.1049
4388.1509
4380.5337
4372.3892
4363.6932
4354.3237
4344.1293
4332.975
4320.7324
4307.318
4292.6203
4276.4496
4258.5597
4238.6214
4216.4081
4191.7822
4164.4492
4135.7381
4106.8866
4076.7951
4046.1335
4018.9058
3993.6878
3969.3344
3945.1618
3920.5103
3894.6498
3867.1783
3839.3488
3812.7337
3787.8095
3693.1118
3743.8601
3699.9038
3671.6911
3634.9294
3588.1255
3548.8163
3514.8459
3483.3571
3452.6508
3421.6956
3389.7131
3356.5954
3322.1052
3285.7193
3246.9431
3205.5322
3161.2876
3113.7506
3062.1762
3003.5213
2931.3454
2842.4646
2767.9328
2705.3711
2649.724
2597.628
2546.7818
2495.4437
2443.0668
2391.0686
2341.5538
2295.9899
2253.3369
2212.491
2172.1214
2130.9169
2087.7062
2042.1558
1997.9741
1962.9661
1019.8738
1147.6883
1152.3626
1160.8463
1169.8175
1178.8825
1187.89
1196.6704
1205.0727
1213.0161
1220.5232
1227.7518
1234.1571
1243.3054
865.86197
891.71154
894.72886
912.89154
2093.6981
2124.5783
2153.6265
2157.5822
2178.9867
2032.1231
1750.0831
1467.7949
956.98592
530.81159
379.48518
377.96215
375.99846
-2154.1586
-2139.5163
-2138.9058
-2139.2611
-2355.8658
-2352.2969
-2346.2116
-2337.3134
-2330.2967
-8922.2047
-8902.9239
-8884.378
-8867.0096
-8852.6002
-8840.5627
-8830.6688
-8822.8303
-8817.0447
-3062.9854
-3060.1325
-3057.2776
-3055.2893
-3053.6659
-3052.3108
-3051.1733
-3050.2402
-3049.5191
-3049.0258
-3048.775
4483.53
4483.2088
4482.5772
4481.658
4480.4882
4479.1254
4477.9739
4404.6829
4403.0755
4397.2322
4390.7308
4383.3218
4375.2084
4366.4385
4356.9675
4346.7035
4335.5332
4323.326
4309.931
4295.1547
4278.6988
4260.2372
4239.1017
4215.4771
4189.419
4160.9193
4130.8636
4100.4275
4070.4587
4041.2422
4014.2902
3989.4697
3965.9863
3942.9496
3919.6216
3895.4318
3870.0783
3843.5843
3815.6174
3784.2126
3743.7365
3732.8199
3704.683
3674.5653
3640.2613
3602.1973
3565.394
3530.5205
3496.7527
3463.4265
3429.8674
3394.7001
3358.9176
3322.6685
3285.1613
3245.7382
3204.107
3160.3773
3115.0262
3068.1902
3015.9271
2939.5499
2809.7245
2738.6816
2685.4401
2638.3315
2593.398
2548.9459
2504.1558
2458.9869
2414.239
2371.034
2330.1339
2291.3854
2254.2235
2217.7412
2180.6091
2140.6809
2094.5785
2042.1226
-1512.7141
485.237
1127.1616
1163.5755
1176.2584
1184.8814
1193.1879
1201.702
1210.2766
1218.6994
1226.8468
1234.7151
1242.4062
1250.0717
1257.685
815.53676
1109.5816
1230.1105
937.54895
2038.1084
2063.4803
2087.1923
2116.4866
2139.8157
2155.3844
2170.7867
2178.3239
2189.0781
2128.4831
1854.6881
1091.0868
573.25423
372.65066
-2130.5775
-2137.201
-2139.8877
-2364.5631
-2361.8124
-2357.54
-2348.9428
-2334.5468
-2303.3804
-2970.4655
-6716.1519
-8628.4259
-8979.7202
-9035.3223
-8999.098
-8965.9539
-8934.7136
-8908.5181
-8887.7929
-8870.1063
-8854.702
-8841.3768
-8829.8809
-8820.0064
-8811.3388
-8804.6252
-3112.4845
-3085.9002
-3064.783
-3059.454
-3055.9872
-3053.2615
-3051.0506
-3049.2409
-3047.7691
-3046.6029
-3045.7291
-3045.1451
-3044.8522
4487.8932
4487.5937
4487.0144
4486.1975
4485.2148
4484.1771
4483.3123
4406.7417
4400.7387
4394.2178
4386.8142
4378.6842
4369.8845
4360.4041
4350.1839
4339.1286
4327.1071
4313.9249
4299.3688
4282.953
4263.2058
4240.6581
4216.6845
4189.6965
4159.0119
4126.2747
4093.9524
4063.4803
4034.8711
4007.1031
3983.961
3962.3182
3941.1803
3919.7745
3897.5254
3874.0498
3849.1048
3822.3858
3793.4831
3763.0538
3738.9996
3711.4433
3681.6249
3649.3514
3615.0077
3580.0424
3545.0898
3509.7055
3474.4368
3437.4223
3397.8509
3360.8224
3324.3117
3286.5593
3246.8893
3204.9492
3161.1003
3117.5675
3079.9541
3057.73
3012.7063
2718.1995
2691.6292
2659.3752
2624.7629
2588.6851
2551.4461
2513.245
2474.484
2435.8667
2398.2057
2362.1267
2327.8483
2295.2761
2264.0109
2233.0993
2199.829
2154.8883
2167.5754
-740.23413
270.02808
1210.4345
1198.5192
1195.7301
1200.2603
1207.2865
1215.4518
1224.0341
1232.601
1240.9561
1249.0835
1257.0859
1265.1163
1272.5683
1282.0374
1324.2034
1347.1292
1373.8499
1383.7535
1393.8395
1401.457
1406.5571
724.20626
1484.7144
1472.2427
1703.0884
1989.7021
2237.6318
2674.2159
2876.3309
2657.812
1945.1235
2021.6458
2055.9082
2084.3438
2110.1934
2133.765
2153.3524
2170.4513
2184.3302
2198.088
2212.6556
2219.4779
2102.1623
1322.9383
-114.31593
-2124.7755
-2137.9059
-2215.5867
-403.26933
-2369.0759
-2370.9251
-2366.8652
-2357.4726
-2343.8097
-2329.5957
-2403.9096
-4033.6268
-6516.3552
-9067.0533
-9033.9297
-8998.4457
-8964.808
-8935.46
-8910.636
-8889.3434
-8870.9208
-8854.7246
-8840.3617
-8827.4715
-8815.7127
-8804.729
-8794.2177
-3076.691
-3057.74
-3066.4354
-3062.1217
-3057.7969
-3053.9559
-3050.7189
-3048.0342
-3045.8332
-3044.0595
-3042.6734
-3041.6495
-3040.9732
-3040.6366
4492.5556
4492.2583
4491.689
4490.9029
4489.9961
4489.1217
4488.3602
4417.9241
4412.0338
4405.4586
4398.5877
4391.0327
4382.8293
4374.0113
4364.5806
4354.4994
4343.6903
4332.0483
4319.2935
4304.5732
4289.2037
4273.4068
4019.6129
3997.9827
3976.9525
3958.1448
3939.6781
3920.7699
3900.8446
3879.4886
3856.3986
3831.3364
3804.2788
3775.9968
3748.6809
3720.4651
3691.1394
3660.511
3628.4407
3594.6782
3558.2473
3521.0185
3485.5888
3455.2565
3943.0622
2630.9035
2647.6929
2635.6679
2612.658
2585.1315
2554.9067
2522.8918
2489.8362
2456.5352
2423.7968
2392.317
2362.6043
2335.0229
2309.9293
2287.9462
2270.6467
2268.2966
2323.7161
-960.69339
-60.497544
915.28687
1201.1859
1207.8823
1213.1435
1220.2441
1228.7849
1237.8063
1246.7138
1255.2927
1263.5766
1271.7367
1279.995
1288.5173
1297.0822
1258.6531
1292.2361
1349.2222
1367.46
1384.5369
1396.5173
1403.6226
1409.5251
1416.5362
1423.0502
1485.7561
1484.681
1305.8424
2098.5952
1531.8121
1776.6537
1711.1698
1801.1461
2007.8613
1956.9528
1869.898
1931.9289
1972.0631
2014.822
2051.2466
2081.6219
2106.1778
2131.6975
2153.8087
2173.3353
2190.4572
2206.2875
2221.1012
2233.4166
2245.9302
2220.6111
-2110.7341
-2088.0651
-2037.7917
-1959.9676
-2370.9227
-2385.656
-2381.523
-2370.2724
-2353.6237
-2331.9125
-2356.0944
-4940.673
-9137.1443
-9075.4352
-9035.7896
-8999.4648
-8964.2048
-8933.8135
-8909.2223
-8888.0241
-8869.5091
-8852.9138
-8837.874
-8823.9306
-8810.6437
-8797.4322
-8782.5293
-8765.6948
-8747.2242
-8727.972
-8638.1796
-6869.1628
-3605.4458
-3086.3634
-3072.6735
-3066.1431
-3060.6066
-3055.6564
-3051.3208
-3047.6241
-3044.5344
-3041.9983
-3039.9624
-3038.3817
-3037.2225
-3036.4616
-3036.0845
4497.5152
4497.1949
4496.5801
4495.7288
4494.7451
4493.8083
4492.8
4430.8665
4424.124
4417.539
4410.818
4403.641
4395.8994
4387.5891
4378.7507
4369.4074
4359.5431
4349.0846
4337.2389
4325.5907
4313.5018
3984.0352
3968.9576
3953.6298
3938.6166
3922.7815
3905.5931
3886.661
3865.6621
3842.2813
3816.2991
3787.9727
3759.2627
3730.5975
3701.955
3673.1144
3641.8798
3609.8229
3578.4647
2634.0304
2622.6155
2605.0677
2584.2741
2560.1545
2533.5777
2505.4319
2476.6413
2448.1258
2420.741
2395.2299
2372.2821
2352.7355
2338.1111
2332.0875
2349.5652
-943.36628
-549.10741
556.34329
1175.3597
1221.4695
1224.1859
1231.7622
1241.636
1251.6921
1261.1548
1269.9239
1278.1932
1286.2893
1294.6085
1303.6101
1313.4102
1325.501
2780.0353
1169.3461
1257.7226
1302.8431
1336.6224
1362.3134
1390.3537
1404.1188
1407.2152
1410.0874
1416.5571
1428.7316
1454.3067
1471.5289
1440.9501
1466.667
1500.0011
1513.3349
1558.1944
1604.3814
1669.0759
1759.4258
1833.0285
1916.3377
1981.4733
2010.6919
2052.6339
2084.7189
2101.1976
2133.0385
2156.8487
2178.6237
2197.875
2215.5032
2232.0443
2247.1571
2259.5507
2261.1214
2325.4265
-1386.8013
-2121.2525
-2069.5751
-2037.6764
-2013.7581
-2011.2246
-176.63325
-2443.9147
-2416.7597
-2403.2984
-2388.4705
-2368.5001
-2337.0761
-2749.9613
-5401.2705
-8950.7205
-8927.8439
-8905.6655
-8885.7776
-8866.1775
-8849.5476
-8834.2899
-8819.733
-8805.4995
-8791.1693
-8776.0501
-8759.1239
-8740.2773
-8719.1819
-7110.0405
-3947.7641
-3181.0543
-3078.7167
-3071.8897
-3064.8572
-3058.5052
-3052.9012
-3048.0471
-3043.9224
-3040.481
-3037.6634
-3035.41
-3033.6686
-3032.3974
-3031.5662
-3031.1553
4502.7948
4502.4257
4501.7078
4500.687
4499.4472
4498.1348
4496.4889
4496.8676
4444.6619
4437.4228
4430.3842
4423.5862
4416.6328
4409.2594
4401.3348
4392.8767
4383.9951
4374.7555
4365.1813
4354.8995
4344.9131
3958.8084
3950.2701
3938.3761
3926.1455
3912.0842
3895.8974
3877.3075
3855.8265
3830.6621
3800.3328
3769.8015
3740.706
3712.972
3686.0728
3661.7575
2613.0987
2601.761
2586.7397
2567.8576
2545.8299
2521.6708
2496.4695
2471.3258
2447.2896
2425.2921
2406.1403
2390.6215
2379.6735
2374.4925
2375.8914
-926.24495
-93.228192
905.79244
1223.1678
1230.369
1240.9808
1254.3051
1266.1706
1276.2889
1285.0547
1292.9829
1300.6185
1308.54
1317.4245
1328.2439
1343.1188
1367.0612
1394.7251
1428.1797
1510.4273
1272.9104
1292.7401
1311.9728
1332.1116
1354.8175
1410.4453
1422.3883
1411.0313
1407.4326
1411.4856
1421.1941
1435.2574
1445.757
1446.8343
1462.7421
1485.6931
1509.0022
1541.1976
1569.9123
1610.3292
1780.4795
1809.2622
1922.3535
2072.7957
2312.7523
2892.7111
3010.8622
2124.189
2142.4092
2161.9238
2186.4351
2206.9156
2225.8054
2244.4158
2263.6157
2285.6776
2317.8775
2344.1299
-158.53627
-4846.3516
-4024.7603
-3960.8808
-3202.511
-1872.9929
-2041.7524
-2041.2825
-2027.0459
-2013.1881
-2006.3633
-2339.2075
-2463.4625
-2442.1042
-2426.4404
-2411.811
-2394.83
-2360.8264
-2732.6086
-8876.7952
-8861.7076
-8845.7419
-8830.0051
-8815.2122
-8800.4521
-8785.6953
-8770.2209
-8753.5591
-8735.4708
-8000.8621
-6649.9297
-4250.9426
-3100.8095
-3081.9936
-3071.3116
-3062.8908
-3055.6561
-3049.3964
-3044.0441
-3039.5377
-3035.8038
-3032.7643
-3030.3459
-3028.4853
-3027.1325
-3026.2504
-3025.8153
4508.4436
4508.0052
4507.1381
4505.8641
4504.2218
4502.2718
4500.0909
4497.5626
4495.1878
4474.4911
4467.5537
4459.0071
4450.836
4443.357
4436.502
4429.7884
4422.8681
4415.4284
4407.3036
4398.5882
4389.5978
4380.4385
4371.0585
4362.1208
3946.196
3939.5077
3931.3389
3920.6993
3907.5371
3891.8414
3873.0534
3848.9275
3811.4
3779.4717
3750.1181
3722.9868
3700.5814
2607.3484
2603.6566
2593.0632
2578.7026
2560.2116
2538.95
2516.2406
2493.4151
2471.8008
2452.5088
2436.3656
2423.9354
2415.4699
2410.6836
2408.2965
-734.33523
253.05784
981.13145
1233.14
1247.4879
1268.4315
1282.396
1292.7752
1301.0231
1308.0649
1314.6618
1321.5083
1329.3039
1338.8538
1351.1722
1367.1954
1384.791
1400.8325
1406.0572
1338.0325
1322.9209
1321.3137
1324.1468
1304.9518
1474.2219
1463.9573
1407.0887
1397.1254
1400.7577
1409.3012
1419.772
1429.4061
1437.8881
1451.7738
1471.0265
1495.7831
1532.6617
1627.1843
4141.4471
5162.9041
4495.5889
2227.8533
2163.9622
2198.2772
2217.5466
2236.3866
2256.1968
2277.2129
2301.6646
2333.8238
2379.5447
1952.9115
-2461.1475
-4385.8207
-4204.8279
-4166.8089
-4086.3583
-3185.0712
-2073.4235
-2018.7975
-2035.137
-2026.7564
-2016.0368
-2005.1609
-1996.4806
-2668.8509
-2492.3848
-2476.3037
-2461.7542
-2448.5481
-2437.5028
-2431.0384
-2342.1675
-8838.1968
-8825.3932
-8811.357
-8796.2436
-8780.9392
-8765.5792
-8749.4207
-8733.6642
-8089.0001
-6332.4849
-4110.9343
-3225.4795
-3077.1366
-3068.4725
-3059.7383
-3051.832
-3044.9843
-3039.1954
-3034.3807
-3030.4323
-3027.2444
-3024.7239
-3022.7944
-3021.3967
-3020.4879
-3020.0403
4514.5305
4514.0132
4512.9752
4511.4093
4509.3041
4506.6395
4503.3688
4499.3529
4493.5285
4486.8395
4478.751
4470.6616
4462.9118
4455.5949
4448.8567
4442.478
4436.1974
4429.6223
4422.2828
4413.8633
4404.5751
4394.9899
4386.0585
4377.5866
3944.8839
3942.5482
3939.0025
3931.8365
3921.7079
3909.4675
3895.788
3882.6514
2607.5463
2604.6237
2593.6754
2577.3607
2557.6759
2536.1252
2514.2954
2493.988
2476.5762
2462.8783
2453.2859
2447.5822
2444.3824
2440.9406
661.82119
1234.5029
1265.1119
1289.5376
1302.2062
1311.3924
1318.1973
1323.5919
1328.4556
1333.5273
1339.4288
1346.6945
1355.6913
1366.227
1376.5055
1382.3735
1377.2686
1351.3986
1333.3351
1857.5991
1575.0294
1561.6346
1356.2396
1373.2227
1385.1182
1395.4805
1405.122
1414.2078
1423.5369
1435.4375
1450.8559
1470.6324
1470.1191
2209.5894
2214.6945
2228.6067
2245.9975
2266.7726
2287.3723
2309.9447
2336.2078
2357.4953
921.93328
-1409.0569
-3718.348
-4174.7766
-4151.8607
-3713.0273
-2618.0003
-2280.3175
-2019.5983
-2021.3254
-2014.5695
-2005.1839
-1994.9236
-1984.7989
-1974.7857
-3832.9581
-2514.8619
-2509.138
-2493.513
-2480.0607
-2468.495
-2458.6137
-2450.9541
-136.02418
-8789.0895
-8776.6828
-8761.5998
-8744.7111
-8725.778
-8692.6404
-8051.4563
-4121.4069
-3086.6975
-3076.5293
-3065.7037
-3055.7581
-3046.9496
-3039.5136
-3033.3724
-3028.3576
-3024.3005
-3021.0571
-3018.511
-3016.5719
-3015.1722
-3014.2643
-3013.8177
4521.1346
4520.5419
4519.34
4517.4936
4514.9456
4511.6134
4507.3917
4502.1736
4495.9107
4488.6838
4481.0214
4473.6643
4466.6296
4460.0549
4453.9963
4448.3561
4442.9007
4437.1412
4430.2176
4421.1253
4410.4407
4401.1872
3946.115
3946.9574
3950.2853
3945.9352
3937.992
3928.5324
3918.9098
3910.1507
2629.5231
2625.4546
2614.0104
2597.8781
2578.2659
2556.2896
2533.6511
2513.2805
2496.9307
2485.2868
2478.7419
2477.1946
2478.1895
2465.7881
1311.1033
1317.9513
1325.4983
1332.3906
1336.7815
1339.6495
1342.0415
1344.7163
1348.1893
1352.8042
1358.6724
1365.5136
1372.5803
1377.9285
2127.1917
1268.2246
1349.2083
1371.0111
1382.3804
1391.0281
1398.7639
1406.6142
1415.5829
1426.326
1439.1243
1585.4206
2224.553
2235.5687
2252.2236
2277.5228
2295.5602
2314.5331
2343.5672
2056.5847
-773.57639
-3179.2399
-4183.565
-4159.0323
-4078.1287
-3237.1577
-2678.8787
-2134.4742
-2030.3769
-2015.122
-2005.0124
-1995.2058
-1984.5886
-1972.9984
-1961.8554
-1955.8168
-9372.6047
-8479.3352
-3784.2153
-2546.9589
-2523.8794
-2508.55
-2496.4803
-2486.7574
-2477.5028
-2460.4464
162.78828
-8324.6282
-7967.5176
-3935.5801
-3070.4012
-3062.0551
-3050.6408
-3040.6947
-3032.7483
-3026.4233
-3021.3767
-3017.3552
-3014.1726
-3011.6912
-3009.8099
-3008.4559
-3007.5794
-3007.1486
4528.3313
4527.6798
4526.3491
4524.2796
4521.3713
4517.4765
4512.4111
4506.0387
4498.5312
4490.8059
4483.3275
4476.3446
4469.8876
4463.9983
4458.7178
4454.0494
4449.9081
4445.8243
4440.2744
4429.6542
3971.8193
3970.1741
3963.628
3955.7922
3947.7613
3940.4473
3934.0255
2633.0917
2654.2095
2639.0313
2621.8722
2601.2194
2577.1148
2550.7407
2528.5522
2512.5808
2502.593
2499.2055
2504.2584
2522.0039
2570.6877
-158.79771
1340.8147
1350.8332
1355.8898
1356.8883
1356.1829
1355.3443
1355.1069
1355.8083
1357.6608
1361.3615
1364.9793
1369.3296
1354.4862
1363.5884
1372.0011
1377.8447
1383.2068
1388.5711
1393.9526
1396.1858
1397.7145
2239.6655
2246.472
2295.5353
2302.8115
2312.3877
2377.9779
1340.8435
-4128.9426
-4088.8336
-4036.3971
-3933.9218
-3398.6484
-2624.2105
-2099.9309
-2011.1493
-2003.7734
-1995.1523
-1986.0383
-1975.2265
-1960.8347
-1942.421
-1913.7073
-4458.3773
-10039.487
-9840.9576
-9820.6718
-9811.9921
-9786.7427
-9757.981
-9728.4823
-9698.9063
-9669.3832
-9640.532
-9576.3901
-9201.8181
-5877.4201
-3473.5929
-2539.0352
-2530.8708
-2520.327
-2510.5534
-2504.5513
-2504.1938
-2517.2043
-2106.0248
-2938.8909
-3067.3216
-3044.0557
-3032.4403
-3024.3619
-3018.1958
-3013.3708
-3009.5713
-3006.5871
-3004.2713
-3002.5205
-3001.2625
-3000.4486
-3000.0489
4536.1794
4535.4968
4534.0972
4531.9043
4528.7832
4524.5105
4518.7369
4511.0389
4501.3695
4492.6814
4485.1381
4478.4991
4472.5777
4467.3334
4462.8268
4459.216
4456.8579
4456.1237
4454.1952
4015.6651
3997.7734
3982.6106
3973.7888
3966.2745
3959.9152
3953.7387
1111.3084
2675.7066
2666.0289
2649.3592
2627.6233
2600.2109
2563.6441
2537.609
2522.2469
2513.303
2511.2231
2518.634
2552.9747
2357.1125
-2843.1825
1366.1985
1381.8703
1383.447
1378.6989
1372.8492
1368.0456
1364.5588
1363.2714
1361.7408
1361.5256
1362.4088
1362.003
1365.1433
1367.6448
1370.5108
1373.5174
1375.079
2185.8055
2331.2396
2307.3394
2262.9441
-3846.3684
-3748.7269
-3026.9619
-2502.2775
-2016.8378
-2003.0482
-1993.67
-1985.7852
-1978.5687
-1969.4442
-1952.693
-1930.9397
-1926.4484
-3100.4444
-7302.06
-9740.6391
-9870.0472
-9824.6782
-9791.4709
-9760.8292
-9730.8253
-9700.9111
-9670.7414
-9639.6669
-9605.7154
-9514.9724
-7639.889
-4192.032
-2549.1041
-2540.2415
-2531.3339
-2520.8551
-2516.7007
-2517.5164
-2522.7912
-2540.4182
-2952.2801
-3026.5356
-3020.649
-3014.0634
-3008.6274
-3004.3394
-3000.9721
-2998.3332
-2996.2866
-2994.7384
-2993.6249
-2992.9038
-2992.5494
4544.7099
4544.0307
4542.6383
4540.457
4537.3468
4533.0448
4526.9875
4518.3348
4503.6483
4493.412
4486.0444
4479.9361
4474.591
4469.9306
4466.0404
4463.1298
4462.184
4467.1937
4495.276
4988.8405
4181.4273
4003.9861
3995.252
3990.4774
3983.6337
3976.9602
3970.1748
3986.3888
4078.3399
-945.84428
2398.4151
2700.0175
2681.909
2659.7059
2632.4614
2562.4051
2534.9414
2525.3444
2516.6194
2513.4529
2503.7459
2254.0839
1393.5766
-4532.419
-7042.4546
-6967.9195
1446.462
1428.8645
1417.3292
1401.6101
1388.4693
1379.4299
1373.0006
1367.6704
1353.1932
1351.8845
1351.7201
1352.3082
1353.0434
1353.4554
-6146.3464
1943.2474
1168.0375
1805.0233
164.11512
-3566.7251
-3285.7724
-2546.0406
-1997.1453
-1990.5359
-1982.0731
-1975.7498
-1973.0071
-1971.2885
-1949.5535
-1929.012
-1926.1887
-4194.1464
-8231.608
-9954.506
-9859.6331
-9825.6715
-9793.6983
-9762.9987
-9733.0519
-9703.1874
-9673.2003
-9642.9629
-9612.4821
-9556.0149
-9467.2758
-7221.4091
-4576.1133
-2688.8118
-2547.4824
-2524.8324
-2523.8799
-2526.3798
-2532.7649
-2544.8322
-2550.8651
-2557.6082
-3023.2322
-3022.2285
-3009.5568
-3002.6155
-2997.9109
-2994.3876
-2991.6445
-2989.4872
-2987.8034
-2986.5217
-2985.5949
-2984.9924
-2984.6955
4553.9196
4553.2777
4551.9685
4549.9388
4547.1019
4543.3349
4538.4906
4533.8773
4497.5908
4491.6708
4485.6917
4480.6102
4475.9194
4471.758
4468.2743
4465.0793
4461.5547
4455.9512
4438.008
4402.609
4792.9843
4017.5663
4015.0614
4009.2355
4000.8222
3991.8373
3984.1065
3980.8324
3949.193
3935.7897
3929.6323
-2105.3088
27.427081
2199.6643
2677.8729
2692.8521
2640.9914
2615.4553
-7367.0354
-6513.3124
-6940.8968
-6927.049
-6886.0463
132.16152
1468.2149
1455.3942
1421.944
1399.9093
1388.5509
1379.5175
1342.8888
1336.1467
1335.0406
1333.9592
1332.9298
1332.4232
-5545.4555
-2390.287
-894.02968
-1197.9814
-3892.4616
-3012.2544
-2241.7682
-1997.8619
-1979.8767
-1968.337
-1962.1338
-1966.4216
-2002.5134
-1942.0691
-1909.0837
-4284.389
-8731.7304
-10147.667
-10031.272
-2659.667
-2526.1444
-2527.4843
-2531.3286
-2537.5797
-2545.7128
-2553.6353
-2563.5996
-2572.9459
-2698.036
-2998.7491
-2992.7345
-2988.9307
-2986.0135
-2983.6557
-2981.731
-2980.1677
-2978.9183
-2977.9501
-2977.2408
-2976.7754
-2976.5449
4563.7713
4563.1918
4562.0191
4560.2275
4557.7876
4554.7016
4551.1507
4548.4142
4488.1931
4484.8471
4480.5633
4476.5554
4473.2729
4470.8431
4467.3583
4463.0046
4457.0484
4448.8537
4443.7097
4447.8099
4413.3526
4031.2663
4038.1909
4030.5804
4018.5829
4005.4593
3992.291
3978.5411
3958.564
3941.2107
3925.5188